 vasp.6.2.0 18Jan21 (build Feb 15 2021 21:32:45) complex                        
  
 executed on LinuxIFC-AVX-CX1-JMF date 2021.07.04  12:59:38
 running on  768 total cores
 distrk:  each k-point on  384 cores,    2 groups
 distr:  one band on NCORE=  12 cores,   32 groups


--------------------------------------------------------------------------------------------------------


 INCAR:
   ALGO = All
   LSORBIT = True
   NELECT = 581.0
   IBRION = -1
   NCORE = 12
   KPAR = 2
   AEXX = 0.345
   ENCUT = 450
   ICORELEVEL = 0
   ADDGRID = True
   EDIFF = 1e-07
   HFSCREEN = 0.2
   ICHARG = 1
   ISIF = 2
   ISYM = 0
   ISMEAR = 0
   LASPH = True
   LHFCALC = True
   LORBIT = 11
   LREAL = False
   LVHAR = True
   LWAVE = True
   NEDOS = 2000
   NELM = 100
   NSW = 0
   PREC = Accurate
   PRECFOCK = Fast
   SIGMA = 0.05

 POTCAR:    PAW_PBE Cd 06Sep2000                  
 POTCAR:    PAW_PBE Te 08Apr2002                  
 -----------------------------------------------------------------------------
|                                                                             |
|           W    W    AA    RRRRR   N    N  II  N    N   GGGG   !!!           |
|           W    W   A  A   R    R  NN   N  II  NN   N  G    G  !!!           |
|           W    W  A    A  R    R  N N  N  II  N N  N  G       !!!           |
|           W WW W  AAAAAA  RRRRR   N  N N  II  N  N N  G  GGG   !            |
|           WW  WW  A    A  R   R   N   NN  II  N   NN  G    G                |
|           W    W  A    A  R    R  N    N  II  N    N   GGGG   !!!           |
|                                                                             |
|     You use a magnetic or noncollinear calculation, but did not specify     |
|     the initial magnetic moment with the MAGMOM tag. Note that a            |
|     default of 1 will be used for all atoms. This ferromagnetic setup       |
|     may break the symmetry of the crystal, in particular it may rule        |
|     out finding an antiferromagnetic solution. Thence, we recommend         |
|     setting the initial magnetic moment manually or verifying carefully     |
|     that this magnetic setup is desired.                                    |
|                                                                             |
 -----------------------------------------------------------------------------

 -----------------------------------------------------------------------------
|                                                                             |
|           W    W    AA    RRRRR   N    N  II  N    N   GGGG   !!!           |
|           W    W   A  A   R    R  NN   N  II  NN   N  G    G  !!!           |
|           W    W  A    A  R    R  N N  N  II  N N  N  G       !!!           |
|           W WW W  AAAAAA  RRRRR   N  N N  II  N  N N  G  GGG   !            |
|           WW  WW  A    A  R   R   N   NN  II  N   NN  G    G                |
|           W    W  A    A  R    R  N    N  II  N    N   GGGG   !!!           |
|                                                                             |
|     For optimal performance we recommend to set                             |
|       NCORE = 2 up to number-of-cores-per-socket                            |
|     NCORE specifies how many cores store one orbital (NPAR=cpu/NCORE).      |
|     This setting can greatly improve the performance of VASP for DFT.       |
|     The default, NCORE=1 might be grossly inefficient on modern             |
|     multi-core architectures or massively parallel machines. Do your        |
|     own testing! More info at https://www.vasp.at/wiki/index.php/NCORE      |
|     Unfortunately you need to use the default for GW and RPA                |
|     calculations (for HF NCORE is supported but not extensively tested      |
|     yet).                                                                   |
|                                                                             |
 -----------------------------------------------------------------------------

 POTCAR:    PAW_PBE Cd 06Sep2000                  
   VRHFIN =Cd : s2 d10                                                                              
   LEXCH  = PE                                                                                      
   EATOM  =  1293.1815 eV,   95.0462 Ry                                                             
                                                                                                    
   TITEL  = PAW_PBE Cd 06Sep2000                                                                    
   LULTRA =        F    use ultrasoft PP ?                                                          
   IUNSCR =        1    unscreen: 0-lin 1-nonlin 2-no                                               
   RPACOR =    2.000    partial core radius                                                         
   POMASS =  112.411; ZVAL   =   12.000    mass and valenz                                          
   RCORE  =    2.300    outmost cutoff radius                                                       
   RWIGS  =    2.980; RWIGS  =    1.577    wigner-seitz radius (au A)                               
   ENMAX  =  274.336; ENMIN  =  205.752 eV                                                          
   RCLOC  =    2.054    cutoff for local pot                                                        
   LCOR   =        T    correct aug charges                                                         
   LPAW   =        T    paw PP                                                                      
   EAUG   =  456.106                                                                                
   DEXC   =    0.000                                                                                
   RMAX   =    2.358    core radius for proj-oper                                                   
   RAUG   =    1.300    factor for augmentation sphere                                              
   RDEP   =    2.450    radius for radial grids                                                     
   RDEPT  =    1.955    core radius for aug-charge                                                  
                                                                                                    
   Atomic configuration                                                                             
   12 entries                                                                                       
     n  l   j            E        occ.                                                              
     1  0  0.50    -26519.7817   2.0000                                                             
     2  0  0.50     -3936.9612   2.0000                                                             
     2  1  1.50     -3532.2230   6.0000                                                             
     3  0  0.50      -733.7908   2.0000                                                             
     3  1  1.50      -601.0792   6.0000                                                             
     3  2  2.50      -393.5307  10.0000                                                             
     4  0  0.50      -105.8977   2.0000                                                             
     4  1  1.50       -66.9488   6.0000                                                             
     4  2  2.50       -11.7331  10.0000                                                             
     5  0  0.50        -5.6592   2.0000                                                             
     5  1  0.50        -1.3606   0.0000                                                             
     4  3  2.50        -1.3606   0.0000                                                             
   Description                                                                                      
     l       E           TYP  RCUT    TYP  RCUT                                                     
     2    -11.7331479     23  2.300                                                                 
     2    -13.0937305     23  2.300                                                                 
     0     -5.6591502     23  2.300                                                                 
     0     -1.5561433     23  2.300                                                                 
     1     -2.7211652     23  2.300                                                                 
     1      8.3548275     23  2.300                                                                 
  local pseudopotential read in
  partial core-charges read in
  partial kinetic energy density read in
  atomic valenz-charges read in
  non local Contribution for L=           2  read in
    real space projection operators read in
  non local Contribution for L=           2  read in
    real space projection operators read in
  non local Contribution for L=           0  read in
    real space projection operators read in
  non local Contribution for L=           0  read in
    real space projection operators read in
  non local Contribution for L=           1  read in
    real space projection operators read in
  non local Contribution for L=           1  read in
    real space projection operators read in
    PAW grid and wavefunctions read in
 
   number of l-projection  operators is LMAX  =           6
   number of lm-projection operators is LMMAX =          18
 
 POTCAR:    PAW_PBE Te 08Apr2002                  
   VRHFIN =Te: s2p4                                                                                 
   LEXCH  = PE                                                                                      
   EATOM  =   223.2721 eV,   16.4100 Ry                                                             
                                                                                                    
   TITEL  = PAW_PBE Te 08Apr2002                                                                    
   LULTRA =        F    use ultrasoft PP ?                                                          
   IUNSCR =        1    unscreen: 0-lin 1-nonlin 2-no                                               
   RPACOR =    2.200    partial core radius                                                         
   POMASS =  127.600; ZVAL   =    6.000    mass and valenz                                          
   RCORE  =    2.300    outmost cutoff radius                                                       
   RWIGS  =    2.900; RWIGS  =    1.535    wigner-seitz radius (au A)                               
   ENMAX  =  174.982; ENMIN  =  131.236 eV                                                          
   ICORE  =        3    local potential                                                             
   LCOR   =        T    correct aug charges                                                         
   LPAW   =        T    paw PP                                                                      
   EAUG   =  368.792                                                                                
   DEXC   =    0.000                                                                                
   RMAX   =    2.345    core radius for proj-oper                                                   
   RAUG   =    1.300    factor for augmentation sphere                                              
   RDEP   =    2.397    radius for radial grids                                                     
   RDEPT  =    2.174    core radius for aug-charge                                                  
                                                                                                    
   Atomic configuration                                                                             
   13 entries                                                                                       
     n  l   j            E        occ.                                                              
     1  0  0.50    -31621.2075   2.0000                                                             
     2  0  0.50     -4848.7941   2.0000                                                             
     2  1  1.50     -4352.1960   6.0000                                                             
     3  0  0.50      -964.9612   2.0000                                                             
     3  1  1.50      -803.6179   6.0000                                                             
     3  2  2.50      -559.8710  10.0000                                                             
     4  0  0.50      -164.3522   2.0000                                                             
     4  1  1.50      -114.3756   6.0000                                                             
     4  2  2.50       -41.6483  10.0000                                                             
     5  0  0.50       -15.1072   2.0000                                                             
     5  1  0.50        -5.9526   4.0000                                                             
     5  2  1.50        -5.4423   0.0000                                                             
     4  3  2.50        -5.4423   0.0000                                                             
   Description                                                                                      
     l       E           TYP  RCUT    TYP  RCUT                                                     
     0    -15.1072389     23  2.300                                                                 
     0    -16.4678215     23  2.300                                                                 
     1     -5.9526306     23  2.300                                                                 
     1     -2.4873968     23  2.300                                                                 
     2     -5.4423304     23  2.300                                                                 
     3     -1.3605826     23  2.300                                                                 
  local pseudopotential read in
  partial core-charges read in
  partial kinetic energy density read in
  atomic valenz-charges read in
  non local Contribution for L=           0  read in
    real space projection operators read in
  non local Contribution for L=           0  read in
    real space projection operators read in
  non local Contribution for L=           1  read in
    real space projection operators read in
  non local Contribution for L=           1  read in
    real space projection operators read in
  non local Contribution for L=           2  read in
    real space projection operators read in
    PAW grid and wavefunctions read in
 
   number of l-projection  operators is LMAX  =           5
   number of lm-projection operators is LMMAX =          13
 
 -----------------------------------------------------------------------------
|                                                                             |
|               ----> ADVICE to this user running VASP <----                  |
|                                                                             |
|     You have a (more or less) 'large supercell' and for larger cells it     |
|     might be more efficient to use real-space projection operators.         |
|     Therefore, try LREAL= Auto in the INCAR file.                           |
|     Mind: For very accurate calculation, you might also keep the            |
|     reciprocal projection scheme (i.e. LREAL=.FALSE.).                      |
|                                                                             |
 -----------------------------------------------------------------------------

  PAW_PBE Cd 06Sep2000                  :
 energy of atom  1       EATOM=-1293.1815
 kinetic energy error for atom=    0.0084 (will be added to EATOM!!)
  PAW_PBE Te 08Apr2002                  :
 energy of atom  2       EATOM= -223.2721
 kinetic energy error for atom=    0.0008 (will be added to EATOM!!)
 
 
 POSCAR: Int_Te_Voronoi3_mult32[0.75 0.25 0.75]_K
  positions in direct lattice
  velocities in cartesian coordinates
 exchange correlation table for  LEXCH =        8
   RHO(1)=    0.500       N(1)  =     2000
   RHO(2)=  100.500       N(2)  =     4000
 


--------------------------------------------------------------------------------------------------------


 ion  position               nearest neighbor table
   1  0.997  0.001  0.003-  53 2.82  43 2.83  64 2.84  34 2.84
   2  0.016  0.976  0.484-  63 2.76  44 2.76  54 2.82  33 2.89
   3  0.000  0.505  0.006-  55 2.80  41 2.82  36 2.82  62 2.82
   4  0.999  0.502  0.501-  56 2.82  35 2.83  61 2.84  42 2.84
   5  0.492  0.997  0.008-  49 2.80  60 2.82  47 2.82  38 2.82
   6  0.497  0.001  0.503-  50 2.82  59 2.83  48 2.84  37 2.84
   7  0.497  0.501  0.003-  51 2.82  58 2.83  45 2.83  40 2.83
   8  0.494  0.505  0.500-  52 2.80  57 2.82  39 2.82  46 2.82
   9  1.000  0.250  0.250-  41 2.82  53 2.83  33 2.84  61 2.85
  10  0.015  0.272  0.768-  34 2.79  42 2.80  62 2.80  54 3.25  65 3.25
  11  0.000  0.749  0.250-  55 2.81  35 2.82  43 2.83  63 2.83
  12  0.998  0.747  0.752-  56 2.82  36 2.82  44 2.83  64 2.83
  13  0.498  0.251  0.252-  49 2.82  45 2.83  57 2.83  37 2.84
  14  0.497  0.250  0.754-  58 2.82  50 2.83  38 2.84  46 2.85
  15  0.498  0.751  0.252-  39 2.82  47 2.82  59 2.82  51 2.83
  16  0.496  0.749  0.754-  52 2.81  40 2.82  48 2.83  60 2.83
  17  0.254  0.997  0.246-  49 2.80  59 2.82  43 2.82  33 2.82
  18  0.250  0.001  0.751-  50 2.82  60 2.83  44 2.84  34 2.84
  19  0.249  0.501  0.251-  51 2.82  57 2.83  41 2.83  35 2.83
  20  0.253  0.505  0.754-  52 2.80  58 2.82  36 2.82  42 2.82
  21  0.749  0.001  0.250-  53 2.82  47 2.83  63 2.84  37 2.84
  22  0.730  0.976  0.770-  64 2.76  48 2.76  65 2.82  38 2.89
  23  0.746  0.505  0.248-  55 2.80  45 2.82  39 2.82  61 2.82
  24  0.747  0.502  0.753-  56 2.82  40 2.83  62 2.84  46 2.84
  25  0.248  0.251  0.002-  49 2.82  58 2.83  41 2.83  34 2.84
  26  0.250  0.250  0.500-  57 2.82  50 2.83  33 2.84  42 2.85
  27  0.248  0.751  0.002-  36 2.82  60 2.82  43 2.82  51 2.83
  28  0.250  0.749  0.500-  52 2.81  35 2.82  59 2.83  44 2.83
  29  0.746  0.250  0.004-  45 2.82  53 2.83  38 2.84  62 2.85
  30  0.732  0.272  0.486-  37 2.79  46 2.80  61 2.80  65 3.24  54 3.25
  31  0.746  0.749  0.004-  55 2.81  40 2.82  64 2.83  47 2.83
  32  0.748  0.747  0.502-  56 2.82  39 2.82  48 2.83  63 2.83
  33  0.131  0.125  0.369-  17 2.82   9 2.84  26 2.84   2 2.89  54 3.48
  34  0.123  0.124  0.877-  10 2.79   1 2.84  18 2.84  25 2.84
  35  0.124  0.625  0.376-  11 2.82  28 2.82   4 2.83  19 2.83
  36  0.124  0.626  0.878-  12 2.82  20 2.82   3 2.82  27 2.82
  37  0.623  0.124  0.377-  30 2.79   6 2.84  21 2.84  13 2.84
  38  0.615  0.125  0.885-   5 2.82  29 2.84  14 2.84  22 2.89  65 3.49
  39  0.622  0.626  0.376-  32 2.82   8 2.82  23 2.82  15 2.82
  40  0.622  0.625  0.878-  31 2.82  16 2.82  24 2.83   7 2.83
  41  0.124  0.376  0.127-   3 2.82   9 2.82  19 2.83  25 2.83
  42  0.130  0.382  0.626-  10 2.80  20 2.82   4 2.84  26 2.85
  43  0.123  0.876  0.126-  17 2.82  27 2.82  11 2.83   1 2.83
  44  0.127  0.870  0.629-   2 2.76  28 2.83  12 2.83  18 2.84
  45  0.622  0.376  0.127-  23 2.82  29 2.82   7 2.83  13 2.83
  46  0.616  0.382  0.628-  30 2.80   8 2.82  24 2.84  14 2.85
  47  0.623  0.876  0.128-   5 2.82  15 2.82  31 2.83  21 2.83
  48  0.619  0.870  0.624-  22 2.76  16 2.83  32 2.83   6 2.84
  49  0.373  0.128  0.127-   5 2.80  17 2.80  13 2.82  25 2.82
  50  0.373  0.127  0.627-  18 2.82   6 2.82  26 2.83  14 2.83
  51  0.373  0.627  0.127-  19 2.82   7 2.82  27 2.83  15 2.83
  52  0.373  0.628  0.627-   8 2.80  20 2.80  28 2.81  16 2.81
  53  0.873  0.127  0.127-  21 2.82   1 2.82   9 2.83  29 2.83
  54  0.945  0.166  0.555-  65 2.66   2 2.82  10 3.25  30 3.25  33 3.48
  55  0.873  0.628  0.127-   3 2.80  23 2.80  11 2.81  31 2.81
  56  0.873  0.624  0.627-  32 2.82  12 2.82  24 2.82   4 2.82
  57  0.373  0.376  0.376-   8 2.82  26 2.82  19 2.83  13 2.83
  58  0.373  0.376  0.878-  20 2.82  14 2.82   7 2.83  25 2.83
  59  0.374  0.876  0.377-  17 2.82  15 2.82  28 2.83   6 2.83
  60  0.372  0.876  0.877-   5 2.82  27 2.82  16 2.83  18 2.83
  61  0.874  0.382  0.370-  30 2.80  23 2.82   4 2.84   9 2.85
  62  0.872  0.382  0.884-  10 2.80   3 2.82  24 2.84  29 2.85
  63  0.870  0.870  0.373-   2 2.76  11 2.83  32 2.83  21 2.84
  64  0.876  0.870  0.881-  22 2.76  31 2.83  12 2.83   1 2.84
  65  0.801  0.166  0.699-  54 2.66  22 2.82  30 3.24  10 3.25  38 3.49
 

IMPORTANT INFORMATION: All symmetrisations will be switched off!
NOSYMM: (Re-)initialisation of all symmetry stuff for point group C_1.


----------------------------------------------------------------------------------------

                                     Primitive cell                                     

  volume of cell :    2241.2856

  direct lattice vectors                    reciprocal lattice vectors
    13.086768000  0.000000000  0.000000000     0.076413061  0.000000000  0.000000000
     0.000000000 13.086768000  0.000000000     0.000000000  0.076413061  0.000000000
     0.000000000  0.000000000 13.086768000     0.000000000  0.000000000  0.076413061

  length of vectors
    13.086768000 13.086768000 13.086768000     0.076413061  0.076413061  0.076413061

  position of ions in fractional coordinates (direct lattice)
     0.996996107  0.001375872  0.003474648
     0.015705866  0.975568958  0.484137831
     0.000381799  0.504718919  0.006345439
     0.998760949  0.501825908  0.501231473
     0.492202161  0.997023996  0.007671496
     0.496641991  0.001387150  0.503106761
     0.496932992  0.500787667  0.003063490
     0.493564291  0.504838256  0.499593255
     0.999835415  0.250384033  0.250339888
     0.014532129  0.272055195  0.768314944
     0.000227291  0.748866294  0.250119858
     0.998148752  0.746555597  0.751899422
     0.498499416  0.251009277  0.252310925
     0.496501036  0.250407614  0.753680775
     0.498066178  0.750783927  0.251793201
     0.496293865  0.748946677  0.754156572
     0.253901051  0.997012278  0.246214928
     0.249540008  0.001392549  0.750703332
     0.249254398  0.500790423  0.250751116
     0.252532019  0.504826029  0.754252321
     0.749195308  0.001378655  0.250350106
     0.730427706  0.975607271  0.769724068
     0.745767409  0.504706599  0.247556317
     0.747429178  0.501850272  0.752587079
     0.247668826  0.251012567  0.001513542
     0.249662978  0.250396791  0.500169094
     0.248123746  0.750778841  0.002016553
     0.249882583  0.748943887  0.499665862
     0.746320138  0.250382659  0.003508608
     0.731564610  0.272059226  0.485583688
     0.745945071  0.748878519  0.003703266
     0.748022416  0.746548139  0.501935444
     0.130997165  0.124672118  0.369004458
     0.123018918  0.124330506  0.876856239
     0.124106900  0.625201368  0.375878194
     0.124036221  0.625676693  0.877924695
     0.623149600  0.124331976  0.376973293
     0.615123082  0.124678373  0.884878079
     0.622091600  0.625678239  0.375944722
     0.622063259  0.625212085  0.877953196
     0.123971377  0.376088334  0.126770352
     0.129936479  0.382231772  0.625984336
     0.123072803  0.875734003  0.125860550
     0.127036155  0.870162322  0.629449538
     0.622186602  0.376096609  0.127085332
     0.616182246  0.382277622  0.627883690
     0.623092592  0.875753324  0.127970690
     0.619136698  0.870172720  0.624392244
     0.373052276  0.128338315  0.126942668
     0.373092817  0.126661656  0.626916081
     0.373089399  0.626719688  0.126912514
     0.373059193  0.627802554  0.626937308
     0.873088545  0.126653579  0.126915345
     0.945088831  0.166284475  0.555065171
     0.873058659  0.627644901  0.126938181
     0.873093737  0.623983244  0.626912080
     0.373240956  0.376088898  0.376020791
     0.372903340  0.376102669  0.877820389
     0.374313092  0.875741216  0.376951648
     0.371853064  0.875749787  0.876878501
     0.874001349  0.382115336  0.370171029
     0.872130661  0.382150279  0.883714745
     0.870387235  0.870113012  0.372895579
     0.875768874  0.870132219  0.880933941
     0.801048591  0.166320066  0.698789117

  ion indices of the primitive-cell ions
   primitive index   ion index
                 1           1
                 2           2
                 3           3
                 4           4
                 5           5
                 6           6
                 7           7
                 8           8
                 9           9
                10          10
                11          11
                12          12
                13          13
                14          14
                15          15
                16          16
                17          17
                18          18
                19          19
                20          20
                21          21
                22          22
                23          23
                24          24
                25          25
                26          26
                27          27
                28          28
                29          29
                30          30
                31          31
                32          32
                33          33
                34          34
                35          35
                36          36
                37          37
                38          38
                39          39
                40          40
                41          41
                42          42
                43          43
                44          44
                45          45
                46          46
                47          47
                48          48
                49          49
                50          50
                51          51
                52          52
                53          53
                54          54
                55          55
                56          56
                57          57
                58          58
                59          59
                60          60
                61          61
                62          62
                63          63
                64          64
                65          65

----------------------------------------------------------------------------------------

 
 
 KPOINTS: Kpoints from DefectsWithTheBoys.vasp_std

Automatic generation of k-mesh.
 Grid dimensions read from file:
 generate k-points for:    2    2    2

 Generating k-lattice:

  Cartesian coordinates                     Fractional coordinates (reciprocal lattice)
     0.038206530  0.000000000  0.000000000     0.500000000  0.000000000  0.000000000
     0.000000000  0.038206530  0.000000000     0.000000000  0.500000000  0.000000000
     0.000000000  0.000000000  0.038206530     0.000000000  0.000000000  0.500000000

  Length of vectors
     0.038206530  0.038206530  0.038206530

  Shift w.r.t. Gamma in fractional coordinates (k-lattice)
     0.000000000  0.000000000  0.000000000

 
 Subroutine IBZKPT returns following result:
 ===========================================
 
 Found      8 irreducible k-points:
 
 Following reciprocal coordinates:
            Coordinates               Weight
  0.000000  0.000000  0.000000      1.000000
  0.500000  0.000000  0.000000      1.000000
  0.000000  0.500000  0.000000      1.000000
  0.000000  0.000000  0.500000      1.000000
  0.500000  0.500000  0.000000      1.000000
  0.000000  0.500000  0.500000      1.000000
  0.500000  0.000000  0.500000      1.000000
  0.500000  0.500000  0.500000      1.000000
 
 Following cartesian coordinates:
            Coordinates               Weight
  0.000000  0.000000  0.000000      1.000000
  0.038207  0.000000  0.000000      1.000000
  0.000000  0.038207  0.000000      1.000000
  0.000000  0.000000  0.038207      1.000000
  0.038207  0.038207  0.000000      1.000000
  0.000000  0.038207  0.038207      1.000000
  0.038207  0.000000  0.038207      1.000000
  0.038207  0.038207  0.038207      1.000000
 
 
 Subroutine IBZKPT_HF returns following result:
 ==============================================
 
 Found      8 k-points in 1st BZ
 the following      8 k-points will be used (e.g. in the exchange kernel)
 Following reciprocal coordinates:   # in IRBZ
  0.000000  0.000000  0.000000    0.12500000   1 t-inv F
  0.500000  0.000000  0.000000    0.12500000   2 t-inv F
  0.000000  0.500000  0.000000    0.12500000   3 t-inv F
  0.000000  0.000000  0.500000    0.12500000   4 t-inv F
  0.500000  0.500000  0.000000    0.12500000   5 t-inv F
  0.000000  0.500000  0.500000    0.12500000   6 t-inv F
  0.500000  0.000000  0.500000    0.12500000   7 t-inv F
  0.500000  0.500000  0.500000    0.12500000   8 t-inv F


--------------------------------------------------------------------------------------------------------




 Dimension of arrays:
   k-points           NKPTS =      8   k-points in BZ     NKDIM =      8   number of bands    NBANDS=    768
   number of dos      NEDOS =   2000   number of ions     NIONS =     65
   non local maximal  LDIM  =      6   non local SUM 2l+1 LMDIM =     18
   total plane-waves  NPLWV = 884736
   max r-space proj   IRMAX =      1   max aug-charges    IRDMAX= 183854
   dimension x,y,z NGX =    96 NGY =   96 NGZ =   96
   dimension x,y,z NGXF=   192 NGYF=  192 NGZF=  192
   support grid    NGXF=   384 NGYF=  384 NGZF=  384
   ions per type =              32  33
   NGX,Y,Z   is equivalent  to a cutoff of  12.20, 12.20, 12.20 a.u.
   NGXF,Y,Z  is equivalent  to a cutoff of  24.39, 24.39, 24.39 a.u.

 SYSTEM =  unknown system                          
 POSCAR =  Int_Te_Voronoi3_mult32[0.75 0.25 0.75]_K

 Startparameter for this run:
   NWRITE =      2    write-flag & timer
   PREC   = accura    normal or accurate (medium, high low for compatibility)
   ISTART =      1    job   : 0-new  1-cont  2-samecut
   ICHARG =      1    charge: 1-file 2-atom 10-const
   ISPIN  =      1    spin polarized calculation?
   LNONCOLLINEAR =      T non collinear calculations
   LSORBIT =      T    spin-orbit coupling
   INIWAV =      1    electr: 0-lowe 1-rand  2-diag
   LASPH  =      T    aspherical Exc in radial PAW
   METAGGA=      F    non-selfconsistent MetaGGA calc.

 Electronic Relaxation 1
   ENCUT  =  450.0 eV  33.07 Ry    5.75 a.u.  22.64 22.64 22.64*2*pi/ulx,y,z
   ENINI  =  450.0     initial cutoff
   ENAUG  =  456.1 eV  augmentation charge cutoff
   NELM   =    100;   NELMIN=  2; NELMDL=  0     # of ELM steps 
   EDIFF  = 0.1E-06   stopping-criterion for ELM
   LREAL  =      F    real-space projection
   NLSPLINE    = F    spline interpolate recip. space projectors
   LCOMPAT=      F    compatible to vasp.4.4
   GGA_COMPAT  = T    GGA compatible to vasp.4.4-vasp.4.6
   LMAXPAW     = -100 max onsite density
   LMAXMIX     =    2 max onsite mixed and CHGCAR
   VOSKOWN=      0    Vosko Wilk Nusair interpolation
   ROPT   =    0.00000   0.00000
 Ionic relaxation
   EDIFFG = 0.1E-05   stopping-criterion for IOM
   NSW    =      0    number of steps for IOM
   NBLOCK =      1;   KBLOCK =      1    inner block; outer block 
   IBRION =     -1    ionic relax: 0-MD 1-quasi-New 2-CG
   NFREE  =      0    steps in history (QN), initial steepest desc. (CG)
   ISIF   =      2    stress and relaxation
   IWAVPR =     10    prediction:  0-non 1-charg 2-wave 3-comb
   ISYM   =      0    0-nonsym 1-usesym 2-fastsym
   LCORR  =      T    Harris-Foulkes like correction to forces

   POTIM  = 0.5000    time-step for ionic-motion
   TEIN   =    0.0    initial temperature
   TEBEG  =    0.0;   TEEND  =   0.0 temperature during run
   SMASS  =  -3.00    Nose mass-parameter (am)
   estimated Nose-frequenzy (Omega)   =  0.10E-29 period in steps = 0.13E+47 mass=  -0.391E-26a.u.
   SCALEE = 1.0000    scale energy and forces
   NPACO  =    256;   APACO  = 16.0  distance and # of slots for P.C.
   PSTRESS=    0.0 pullay stress

  Mass of Ions in am
   POMASS = 112.41127.60
  Ionic Valenz
   ZVAL   =  12.00  6.00
  Atomic Wigner-Seitz radii
   RWIGS  =  -1.00 -1.00
  virtual crystal weights 
   VCA    =   1.00  1.00
   NELECT =     581.0000    total number of electrons
   NUPDOWN=      -1.0000    fix difference up-down

 DOS related values:
   EMIN   =  10.00;   EMAX   =-10.00  energy-range for DOS
   EFERMI =   0.00
   ISMEAR =     0;   SIGMA  =   0.05  broadening in eV -4-tet -1-fermi 0-gaus

 Electronic relaxation 2 (details)
   IALGO  =     58    algorithm
   LDIAG  =      T    sub-space diagonalisation (order eigenvalues)
   LSUBROT=      F    optimize rotation matrix (better conditioning)
   TURBO    =      0    0=normal 1=particle mesh
   IRESTART =      0    0=no restart 2=restart with 2 vectors
   NREBOOT  =      0    no. of reboots
   NMIN     =      0    reboot dimension
   EREF     =   0.00    reference energy to select bands
   IMIX   =      4    mixing-type and parameters
     AMIX     =   0.40;   BMIX     =  1.00
     AMIX_MAG =   1.60;   BMIX_MAG =  1.00
     AMIN     =   0.10
     WC   =   100.;   INIMIX=   1;  MIXPRE=   1;  MAXMIX= -45

 Intra band minimization:
   WEIMIN = 0.0000     energy-eigenvalue tresh-hold
   EBREAK =  0.33E-10  absolut break condition
   DEPER  =   0.30     relativ break condition  

   TIME   =   0.40     timestep for ELM

  volume/ion in A,a.u.               =      34.48       232.69
  Fermi-wavevector in a.u.,A,eV,Ry     =   1.043841  1.972574 14.824971  1.089605
  Thomas-Fermi vector in A             =   2.178568
 
 Write flags
   LWAVE        =      T    write WAVECAR
   LDOWNSAMPLE  =      F    k-point downsampling of WAVECAR
   LCHARG       =      T    write CHGCAR
   LVTOT        =      F    write LOCPOT, total local potential
   LVHAR        =      T    write LOCPOT, Hartree potential only
   LELF         =      F    write electronic localiz. function (ELF)
   LORBIT       =     11    0 simple, 1 ext, 2 COOP (PROOUT), +10 PAW based schemes


 Dipole corrections
   LMONO  =      F    monopole corrections only (constant potential shift)
   LDIPOL =      F    correct potential (dipole corrections)
   IDIPOL =      0    1-x, 2-y, 3-z, 4-all directions 
   EPSILON=  1.0000000 bulk dielectric constant

 Exchange correlation treatment:
   GGA     =    --    GGA type
   LEXCH   =     8    internal setting for exchange type
   VOSKOWN=      0    Vosko Wilk Nusair interpolation
   EXXOEP  =     0    0=HF, 1=EXX-LHF (local Hartree Fock) 2=EXX OEP
   LHFCALC =     T    Hartree Fock is set to
   LSYMGRAD=     F    symmetrize gradient (conserves proper symmetry)
   PRECFOCK=fast      Normal, Fast or Accurate (Low or Medium for compatibility)
   LRHFCALC=     F    long range Hartree Fock
   LRSCOR  =     F    long range correlation only (use DFT for short range part)
   LTHOMAS =     F    Thomas Fermi screening in HF
   LMODELHF=     F    short range full HF, long range fraction AEXX
   LFOCKACE=     T    use Adeptively-Compressed-Exchange operator
   ENCUT4O =  -1.0   cutoff for four orbital integrals eV
   LMAXFOCK=     4    L truncation for augmentation on plane wave grid
   LMAXFOCKAE=  -1    L truncation for all-electron charge restoration on plane wave grid
   NMAXFOCKAE=   1    number of basis functions for all-electron charge restoration
   LFOCKAEDFT=     F  apply the AE augmentation even for DFT
   NKREDX  =     1    reduce k-point grid by
   NKREDY  =     1    reduce k-point grid by
   NKREDZ  =     1    reduce k-point grid by
   SHIFTRED=     F    shift reduced grid of Gamma
   HFKIDENT=     F    idential grid for each k-point
   ODDONLY =     F    use only odd q-grid points
   EVENONLY=     F    use only even q-grid points
   HFALPHA =   -1.0000 decay constant for conv. correction
   MCALPHA =    0.0000 extent of test-charge in conv. correction in multipole expansion
   AEXX    =    0.3450 exact exchange contribution
   HFSCREEN=    0.2000 screening length (either q_TF or 0.3 A-1)
   HFSCREENC=   0.2000 screening length for correlation (either q_TF or 0.3 A-1)
   HFRCUT  =    0.0000 spherical cutoff for potential kernel
   ALDAX   =    0.6550 LDA exchange part
   AGGAX   =    0.6550 GGA exchange part
   ALDAC   =    1.0000 LDA correlation
   AGGAC   =    1.0000 GGA correlation
   ENCUTFOCK=  -1.0 apply spherical cutoff to Coloumb kernel
   NBANDSGWLOW=     1    first orbital included in HF term
   NBLOCK_FOCK=    64    blocking factor in FOCK_ACC
 Linear response parameters
   LEPSILON=     F    determine dielectric tensor
   LRPA    =     F    only Hartree local field effects (RPA)
   LNABLA  =     F    use nabla operator in PAW spheres
   LVEL    =     F    velocity operator in full k-point grid
   LINTERFAST=   F  fast interpolation
   KINTER  =     0    interpolate to denser k-point grid
   CSHIFT  =0.1000    complex shift for real part using Kramers Kronig
   OMEGAMAX=  -1.0    maximum frequency
   DEG_THRESHOLD= 0.2000000E-02 threshold for treating states as degnerate
   RTIME   =   -0.100 relaxation time in fs
  (WPLASMAI=    0.000 imaginary part of plasma frequency in eV, 0.658/RTIME)
   DFIELD  = 0.0000000 0.0000000 0.0000000 field for delta impulse in time
 
 Orbital magnetization related:
   ORBITALMAG=     F  switch on orbital magnetization
   LCHIMAG   =     F  perturbation theory with respect to B field
   DQ        =  0.001000  dq finite difference perturbation B field
   LLRAUG    =     F  two centre corrections for induced B field



--------------------------------------------------------------------------------------------------------


 Static calculation
 charge density and potential will be updated during run
 non collinear spin polarized calculation
 Conjugate gradient for all bands (Freysoldt, et al. PRB 79, 241103 (2009))
 preconditioned conjugated gradient                                        
 perform sub-space diagonalisation
    before iterative eigenvector-optimisation
 modified Broyden-mixing scheme, WC =      100.0
 initial mixing is a Kerker type mixing with AMIX =  0.4000 and BMIX =      1.0000
 Hartree-type preconditioning will be used
 using additional bands          477
 reciprocal scheme for non local part
 use partial core corrections
 no Harris-corrections to forces 
 use gradient corrections 
 use of overlap-Matrix (Vanderbilt PP)
 Gauss-broadening in eV      SIGMA  =   0.05


--------------------------------------------------------------------------------------------------------


  energy-cutoff  :      450.00
  volume of cell :     2241.29
      direct lattice vectors                 reciprocal lattice vectors
    13.086768000  0.000000000  0.000000000     0.076413061  0.000000000  0.000000000
     0.000000000 13.086768000  0.000000000     0.000000000  0.076413061  0.000000000
     0.000000000  0.000000000 13.086768000     0.000000000  0.000000000  0.076413061

  length of vectors
    13.086768000 13.086768000 13.086768000     0.076413061  0.076413061  0.076413061


 
 old parameters found on file WAVECAR:
  energy-cutoff  :      450.00
  volume of cell :     2241.29
      direct lattice vectors                 reciprocal lattice vectors
    13.086768000  0.000000000  0.000000000     0.076413061  0.000000000  0.000000000
     0.000000000 13.086768000  0.000000000     0.000000000  0.076413061  0.000000000
     0.000000000  0.000000000 13.086768000     0.000000000  0.000000000  0.076413061

  length of vectors

 
 k-points in units of 2pi/SCALE and weight: Kpoints from DefectsWithTheBoys.vasp_std
   0.00000000  0.00000000  0.00000000       0.125
   0.03820653  0.00000000  0.00000000       0.125
   0.00000000  0.03820653  0.00000000       0.125
   0.00000000  0.00000000  0.03820653       0.125
   0.03820653  0.03820653  0.00000000       0.125
   0.00000000  0.03820653  0.03820653       0.125
   0.03820653  0.00000000  0.03820653       0.125
   0.03820653  0.03820653  0.03820653       0.125
 
 k-points in reciprocal lattice and weights: Kpoints from DefectsWithTheBoys.vasp_std
   0.00000000  0.00000000  0.00000000       0.125
   0.50000000  0.00000000  0.00000000       0.125
   0.00000000  0.50000000  0.00000000       0.125
   0.00000000  0.00000000  0.50000000       0.125
   0.50000000  0.50000000  0.00000000       0.125
   0.00000000  0.50000000  0.50000000       0.125
   0.50000000  0.00000000  0.50000000       0.125
   0.50000000  0.50000000  0.50000000       0.125
 
 position of ions in fractional coordinates (direct lattice) 
   0.99699611  0.00137587  0.00347465
   0.01570587  0.97556896  0.48413783
   0.00038180  0.50471892  0.00634544
   0.99876095  0.50182591  0.50123147
   0.49220216  0.99702400  0.00767150
   0.49664199  0.00138715  0.50310676
   0.49693299  0.50078767  0.00306349
   0.49356429  0.50483826  0.49959326
   0.99983541  0.25038403  0.25033989
   0.01453213  0.27205519  0.76831494
   0.00022729  0.74886629  0.25011986
   0.99814875  0.74655560  0.75189942
   0.49849942  0.25100928  0.25231093
   0.49650104  0.25040761  0.75368077
   0.49806618  0.75078393  0.25179320
   0.49629387  0.74894668  0.75415657
   0.25390105  0.99701228  0.24621493
   0.24954001  0.00139255  0.75070333
   0.24925440  0.50079042  0.25075112
   0.25253202  0.50482603  0.75425232
   0.74919531  0.00137866  0.25035011
   0.73042771  0.97560727  0.76972407
   0.74576741  0.50470660  0.24755632
   0.74742918  0.50185027  0.75258708
   0.24766883  0.25101257  0.00151354
   0.24966298  0.25039679  0.50016909
   0.24812375  0.75077884  0.00201655
   0.24988258  0.74894389  0.49966586
   0.74632014  0.25038266  0.00350861
   0.73156461  0.27205923  0.48558369
   0.74594507  0.74887852  0.00370327
   0.74802242  0.74654814  0.50193544
   0.13099716  0.12467212  0.36900446
   0.12301892  0.12433051  0.87685624
   0.12410690  0.62520137  0.37587819
   0.12403622  0.62567669  0.87792470
   0.62314960  0.12433198  0.37697329
   0.61512308  0.12467837  0.88487808
   0.62209160  0.62567824  0.37594472
   0.62206326  0.62521208  0.87795320
   0.12397138  0.37608833  0.12677035
   0.12993648  0.38223177  0.62598434
   0.12307280  0.87573400  0.12586055
   0.12703616  0.87016232  0.62944954
   0.62218660  0.37609661  0.12708533
   0.61618225  0.38227762  0.62788369
   0.62309259  0.87575332  0.12797069
   0.61913670  0.87017272  0.62439224
   0.37305228  0.12833832  0.12694267
   0.37309282  0.12666166  0.62691608
   0.37308940  0.62671969  0.12691251
   0.37305919  0.62780255  0.62693731
   0.87308855  0.12665358  0.12691534
   0.94508883  0.16628447  0.55506517
   0.87305866  0.62764490  0.12693818
   0.87309374  0.62398324  0.62691208
   0.37324096  0.37608890  0.37602079
   0.37290334  0.37610267  0.87782039
   0.37431309  0.87574122  0.37695165
   0.37185306  0.87574979  0.87687850
   0.87400135  0.38211534  0.37017103
   0.87213066  0.38215028  0.88371474
   0.87038723  0.87011301  0.37289558
   0.87576887  0.87013222  0.88093394
   0.80104859  0.16632007  0.69878912
 
 position of ions in cartesian coordinates  (Angst):
  13.04745675  0.01800572  0.04547192
   0.20553902 12.76704463  6.33579947
   0.00499651  6.60513940  0.08304129
  13.07055283  6.56727924  6.55950000
   6.44133549 13.04782173  0.10039509
   6.49943851  0.01815331  6.58404146
   6.50324678  6.55369202  0.04009118
   6.45916137  6.60670114  6.53806103
  13.08461411  3.27671775  3.27614003
   0.19017860  3.56032322 10.05475942
   0.00297450  9.80023946  3.27326056
  13.06254115  9.76999989  9.83993329
   6.52374621  3.28490017  3.30193454
   6.49759387  3.27702636  9.86324545
   6.51807651  9.82533506  3.29515921
   6.49488268  9.80129141  9.86947209
   3.32274415 13.04766838  3.22215765
   3.26567219  0.01822397  9.82428034
   3.26193449  6.55372808  3.28152168
   3.30482795  6.60654112  9.87072514
   9.80454518  0.01804214  3.27627376
   9.55893792 12.76754601 10.07320030
   9.75968507  6.60497817  3.23971209
   9.78143225  6.56759808  9.84893251
   3.24118447  3.28494323  0.01980737
   3.26728147  3.27688471  6.54559690
   3.24713790  9.82526851  0.02639016
   3.27015539  9.80125490  6.53901121
   9.76691850  3.27669977  0.04591634
   9.57381633  3.56037598  6.35472107
   9.76201009  9.80039944  0.04846378
   9.78919581  9.76990229  6.56871270
   1.71432950  1.63155508  4.82907574
   1.60992004  1.62708449 11.47521418
   1.62415821  8.18186525  4.91903072
   1.62323325  8.18808572 11.48919681
   8.15501424  1.62710372  4.93336203
   8.04997306  1.63163694 11.58019413
   8.14116844  8.18810595  4.91990136
   8.14079756  8.18200550 11.48956979
   1.62238465  4.92178077  1.65901418
   1.70044856  5.00217852  8.19211178
   1.61062522 11.46052772  1.64710782
   1.66249269 11.38761243  8.23746007
   8.14241171  4.92188906  1.66313625
   8.06383410  5.00277855  8.21696818
   8.15426819 11.46078058  1.67472273
   8.10249833 11.38774851  8.17127643
   4.88204859  1.67953376  1.66126925
   4.88257914  1.65759170  8.20430530
   4.88253441  8.20173516  1.66087463
   4.88213910  8.21590637  8.20458310
  11.42590724  1.65748600  1.66091168
  12.36815827  2.17612634  7.26400911
  11.42551613  8.21384320  1.66121053
  11.42597518  8.16592395  8.20425295
   4.88451780  4.92178815  4.92089685
   4.88009950  4.92196837 11.48783177
   4.89854859 11.46062212  4.93307877
   4.86635478 11.46073429 11.47550551
  11.43785288  5.00065475  4.84434238
  11.41337162  5.00111205 11.56496985
  11.39055581 11.38696712  4.87999794
  11.46098407 11.38721848 11.52857811
  10.48313707  2.17659212  9.14489105
 
 Euler angles ALPHA=     0.0000000  BETA=     0.0000000

 transformation matrix from SAXIS to cartesian coordinates
 ---------------------------------------------------------
     1.0000000 m_x     0.0000000 m_y     0.0000000 m_z
     0.0000000 m_x     1.0000000 m_y     0.0000000 m_z
     0.0000000 m_x     0.0000000 m_y     1.0000000 m_z

 transformation matrix from cartesian coordinates to SAXIS
 ---------------------------------------------------------
     1.0000000 m_x     0.0000000 m_y     0.0000000 m_z
     0.0000000 m_x     1.0000000 m_y     0.0000000 m_z
     0.0000000 m_x     0.0000000 m_y     1.0000000 m_z




--------------------------------------------------------------------------------------------------------


 k-point   1 :   0.0000 0.0000 0.0000  plane waves:   97002
 k-point   2 :   0.5000 0.0000 0.0000  plane waves:   97356
 k-point   3 :   0.0000 0.5000 0.0000  plane waves:   97356
 k-point   4 :   0.0000 0.0000 0.5000  plane waves:   97356
 k-point   5 :   0.5000 0.5000 0.0000  plane waves:   96960
 k-point   6 :   0.0000 0.5000 0.5000  plane waves:   96960
 k-point   7 :   0.5000 0.0000 0.5000  plane waves:   96960
 k-point   8 :   0.5000 0.5000 0.5000  plane waves:   96832

 maximum and minimum number of plane-waves per node :      8168     8022

 maximum number of plane-waves:     97356
 maximum index in each direction: 
   IXMAX=   22   IYMAX=   22   IZMAX=   22
   IXMIN=  -23   IYMIN=  -23   IZMIN=  -23


 parallel 3D FFT for wavefunctions:
    minimum data exchange during FFTs selected (reduces bandwidth)
 parallel 3D FFT for charge:
    minimum data exchange during FFTs selected (reduces bandwidth)


 FFT grid for exact exchange (Hartree Fock) 
  NGX = 48; NGY = 48; NGZ = 48

 
 Radii for the augmentation spheres in the non-local exchange
 for species   1 augmentation radius   1.444 (default was   1.070)
       energy cutoff for augmentation   1800.0
 for species   2 augmentation radius   1.606 (default was   1.190)
       energy cutoff for augmentation   1800.0

 real space projection operators:
  total allocation   :       9421.68 KBytes
  max/ min on nodes  :        898.05        605.27

 Maximum index for augmentation-charges in exchange           92
  SETUP_FOCK is finished

 total amount of memory used by VASP MPI-rank0   150042. kBytes
=======================================================================

   base      :      30000. kBytes
   nonl-proj :      13590. kBytes
   fftplans  :       9258. kBytes
   grid      :      18284. kBytes
   one-center:        373. kBytes
   HF        :        129. kBytes
   nonlr-proj:       1731. kBytes
   wavefun   :      76677. kBytes
 
     INWAV:  cpu time  139.2647: real time  150.8602
 Broyden mixing: mesh for mixing (old mesh)
   NGX = 45   NGY = 45   NGZ = 45
  (NGX  =192   NGY  =192   NGZ  =192)
  gives a total of  91125 points

 initial charge density was supplied:
 number of electron     581.0000007 magnetization       0.1447338     -0.0000098      0.8062835
 charge density for first step will be calculated from the start-wavefunctions


--------------------------------------------------------------------------------------------------------


 Maximum index for augmentation-charges         3099 (set IRDMAX)


--------------------------------------------------------------------------------------------------------


 initial charge from wavefunction
 First call to EWALD:  gamma=   0.135
 Maximum number of real-space cells 3x 3x 3
 Maximum number of reciprocal cells 3x 3x 3

    FEWALD:  cpu time    0.0045: real time    0.0052


--------------------------------------- Iteration      1(   1)  ---------------------------------------


    POTLOK:  cpu time    0.8787: real time    0.8873
    SETDIJ:  cpu time    3.6701: real time    3.6933
    TRIAL :  cpu time  933.0043: real time  950.5762
    CORREC:  cpu time  958.2676: real time  974.6849
    CHARGE:  cpu time    2.3150: real time    2.3454
    --------------------------------------------
      LOOP:  cpu time 1898.2704: real time 1932.3280

 eigenvalue-minimisations  :     0
 total energy-change (2. order) :-0.2204300E+03  (-0.1329517E-03)
 number of electron     581.0000007 magnetization       0.1453773     -0.0000106      0.8059032
 augmentation part      148.2763468 magnetization      -0.0105695     -0.0000010     -0.0534316

 Free energy of the ion-electron system (eV)
  ---------------------------------------------------
  alpha Z        PSCENC =      1578.64215378
  Ewald energy   TEWEN  =    -33459.92619359
  -Hartree energ DENC   =    -16386.72268424
  -exchange      EXHF   =      1549.41550700
  -V(xc)+E(xc)   XCENC  =      -613.77381323
  PAW double counting   =    163817.70446776  -161872.89908412
  entropy T*S    EENTRO =        -0.00000000
  eigenvalues    EBANDS =     -3484.70473498
  atomic energy  EATOM  =     48651.83435161
  ---------------------------------------------------
  free energy    TOTEN  =      -220.43003001 eV

  energy without entropy =     -220.43003001  energy(sigma->0) =     -220.43003001
  exchange ACFDT corr.  =        -0.00000000  see jH, gK, PRB 81, 115126


--------------------------------------------------------------------------------------------------------




--------------------------------------- Iteration      1(   2)  ---------------------------------------


    POTLOK:  cpu time    0.8265: real time    0.8339
    SETDIJ:  cpu time    3.7562: real time    3.7849
    TRIAL :  cpu time  953.3629: real time  969.4778
    CORREC:  cpu time  942.6315: real time  958.8108
    CHARGE:  cpu time    2.1784: real time    2.3236
    --------------------------------------------
      LOOP:  cpu time 1902.8145: real time 1935.3461

 eigenvalue-minimisations  :     0
 total energy-change (2. order) :-0.1324221E-03  (-0.5611597E-04)
 number of electron     581.0000007 magnetization       0.1468016     -0.0000124      0.8050963
 augmentation part      148.2762434 magnetization      -0.0108375      0.0000002     -0.0534439

 Free energy of the ion-electron system (eV)
  ---------------------------------------------------
  alpha Z        PSCENC =      1578.64215378
  Ewald energy   TEWEN  =    -33459.92619359
  -Hartree energ DENC   =    -16386.74111520
  -exchange      EXHF   =      1549.41580381
  -V(xc)+E(xc)   XCENC  =      -613.77352183
  PAW double counting   =    163816.79112986  -161871.98624084
  entropy T*S    EENTRO =        -0.00000000
  eigenvalues    EBANDS =     -3484.68653003
  atomic energy  EATOM  =     48651.83435161
  ---------------------------------------------------
  free energy    TOTEN  =      -220.43016243 eV

  energy without entropy =     -220.43016243  energy(sigma->0) =     -220.43016243
  exchange ACFDT corr.  =        -0.00000000  see jH, gK, PRB 81, 115126


--------------------------------------------------------------------------------------------------------




--------------------------------------- Iteration      1(   3)  ---------------------------------------


    POTLOK:  cpu time    0.8171: real time    0.8253
    SETDIJ:  cpu time    3.7256: real time    3.7571
    TRIAL :  cpu time  930.8740: real time  947.6959
    CORREC:  cpu time  928.6955: real time  945.4960
    CHARGE:  cpu time    2.3121: real time    2.3657
    --------------------------------------------
      LOOP:  cpu time 1866.4401: real time 1900.2618

 eigenvalue-minimisations  :     0
 total energy-change (2. order) :-0.5394760E-04  (-0.1293586E-04)
 number of electron     581.0000007 magnetization       0.1483146     -0.0000141      0.8042935
 augmentation part      148.2763163 magnetization      -0.0109696      0.0000008     -0.0534152

 Free energy of the ion-electron system (eV)
  ---------------------------------------------------
  alpha Z        PSCENC =      1578.64215378
  Ewald energy   TEWEN  =    -33459.92619359
  -Hartree energ DENC   =    -16386.72844096
  -exchange      EXHF   =      1549.41513997
  -V(xc)+E(xc)   XCENC  =      -613.77380692
  PAW double counting   =    163815.43871202  -161870.63311984
  entropy T*S    EENTRO =        -0.00000000
  eigenvalues    EBANDS =     -3484.69901245
  atomic energy  EATOM  =     48651.83435161
  ---------------------------------------------------
  free energy    TOTEN  =      -220.43021638 eV

  energy without entropy =     -220.43021638  energy(sigma->0) =     -220.43021638
  exchange ACFDT corr.  =        -0.00000000  see jH, gK, PRB 81, 115126


--------------------------------------------------------------------------------------------------------




--------------------------------------- Iteration      1(   4)  ---------------------------------------


    POTLOK:  cpu time    0.8719: real time    0.8792
    SETDIJ:  cpu time    3.8591: real time    3.8865
    TRIAL :  cpu time  931.2197: real time  948.5183
    CORREC:  cpu time  930.0974: real time  946.6674
    CHARGE:  cpu time    2.2549: real time    2.3171
    --------------------------------------------
      LOOP:  cpu time 1868.3905: real time 1902.4173

 eigenvalue-minimisations  :     0
 total energy-change (2. order) :-0.1398589E-04  (-0.1345636E-04)
 number of electron     581.0000007 magnetization       0.1508678     -0.0000163      0.8029708
 augmentation part      148.2763591 magnetization      -0.0111375      0.0000012     -0.0533364

 Free energy of the ion-electron system (eV)
  ---------------------------------------------------
  alpha Z        PSCENC =      1578.64215378
  Ewald energy   TEWEN  =    -33459.92619359
  -Hartree energ DENC   =    -16386.73093268
  -exchange      EXHF   =      1549.41495676
  -V(xc)+E(xc)   XCENC  =      -613.77375129
  PAW double counting   =    163814.17016880  -161869.36463539
  entropy T*S    EENTRO =        -0.00000000
  eigenvalues    EBANDS =     -3484.69634836
  atomic energy  EATOM  =     48651.83435161
  ---------------------------------------------------
  free energy    TOTEN  =      -220.43023036 eV

  energy without entropy =     -220.43023036  energy(sigma->0) =     -220.43023036
  exchange ACFDT corr.  =        -0.00000000  see jH, gK, PRB 81, 115126


--------------------------------------------------------------------------------------------------------




--------------------------------------- Iteration      1(   5)  ---------------------------------------


    POTLOK:  cpu time    0.7826: real time    0.7938
    SETDIJ:  cpu time    3.6786: real time    3.7137
    TRIAL :  cpu time  929.1732: real time  945.8171
    CORREC:  cpu time  928.5630: real time  945.0508
    CHARGE:  cpu time    2.3512: real time    2.3986
    --------------------------------------------
      LOOP:  cpu time 1864.6139: real time 1897.9107

 eigenvalue-minimisations  :     0
 total energy-change (2. order) :-0.1585952E-04  (-0.1500799E-04)
 number of electron     581.0000007 magnetization       0.1552031     -0.0000191      0.8007554
 augmentation part      148.2763454 magnetization      -0.0113773      0.0000005     -0.0532124

 Free energy of the ion-electron system (eV)
  ---------------------------------------------------
  alpha Z        PSCENC =      1578.64215378
  Ewald energy   TEWEN  =    -33459.92619359
  -Hartree energ DENC   =    -16386.72813203
  -exchange      EXHF   =      1549.41454352
  -V(xc)+E(xc)   XCENC  =      -613.77380308
  PAW double counting   =    163812.50770022  -161867.70200773
  entropy T*S    EENTRO =        -0.00000000
  eigenvalues    EBANDS =     -3484.69885892
  atomic energy  EATOM  =     48651.83435161
  ---------------------------------------------------
  free energy    TOTEN  =      -220.43024622 eV

  energy without entropy =     -220.43024622  energy(sigma->0) =     -220.43024622
  exchange ACFDT corr.  =        -0.00000000  see jH, gK, PRB 81, 115126


--------------------------------------------------------------------------------------------------------




--------------------------------------- Iteration      1(   6)  ---------------------------------------


    POTLOK:  cpu time    0.8012: real time    0.8083
    SETDIJ:  cpu time    3.7267: real time    3.7706
    TRIAL :  cpu time  933.3926: real time  949.9935
    CORREC:  cpu time  931.8186: real time  947.9639
    CHARGE:  cpu time    2.3051: real time    2.3471
    --------------------------------------------
      LOOP:  cpu time 1872.0739: real time 1904.9776

 eigenvalue-minimisations  :     0
 total energy-change (2. order) :-0.1749801E-04  (-0.3683513E-04)
 number of electron     581.0000007 magnetization       0.1701013     -0.0000260      0.7930904
 augmentation part      148.2765547 magnetization      -0.0121711      0.0000013     -0.0527947

 Free energy of the ion-electron system (eV)
  ---------------------------------------------------
  alpha Z        PSCENC =      1578.64215378
  Ewald energy   TEWEN  =    -33459.92619359
  -Hartree energ DENC   =    -16386.71937565
  -exchange      EXHF   =      1549.41395723
  -V(xc)+E(xc)   XCENC  =      -613.77398046
  PAW double counting   =    163810.76668343  -161865.96054186
  entropy T*S    EENTRO =        -0.00000000
  eigenvalues    EBANDS =     -3484.70731820
  atomic energy  EATOM  =     48651.83435161
  ---------------------------------------------------
  free energy    TOTEN  =      -220.43026372 eV

  energy without entropy =     -220.43026372  energy(sigma->0) =     -220.43026372
  exchange ACFDT corr.  =        -0.00000000  see jH, gK, PRB 81, 115126


--------------------------------------------------------------------------------------------------------




--------------------------------------- Iteration      1(   7)  ---------------------------------------


    POTLOK:  cpu time    0.7856: real time    0.7891
    SETDIJ:  cpu time    3.7938: real time    3.8237
    TRIAL :  cpu time  932.8040: real time  949.7370
    CORREC:  cpu time  930.6747: real time  947.0470
    CHARGE:  cpu time    2.3187: real time    2.3873
    --------------------------------------------
      LOOP:  cpu time 1870.6212: real time 1904.1272

 eigenvalue-minimisations  :     0
 total energy-change (2. order) :-0.3389551E-04  (-0.3935711E-04)
 number of electron     581.0000007 magnetization       0.1978909     -0.0000383      0.7782181
 augmentation part      148.2765776 magnetization      -0.0137706      0.0000020     -0.0519435

 Free energy of the ion-electron system (eV)
  ---------------------------------------------------
  alpha Z        PSCENC =      1578.64215378
  Ewald energy   TEWEN  =    -33459.92619359
  -Hartree energ DENC   =    -16386.73089040
  -exchange      EXHF   =      1549.41359033
  -V(xc)+E(xc)   XCENC  =      -613.77378112
  PAW double counting   =    163806.95229366  -161862.14613463
  entropy T*S    EENTRO =        -0.00000000
  eigenvalues    EBANDS =     -3484.69568725
  atomic energy  EATOM  =     48651.83435161
  ---------------------------------------------------
  free energy    TOTEN  =      -220.43029762 eV

  energy without entropy =     -220.43029762  energy(sigma->0) =     -220.43029762
  exchange ACFDT corr.  =        -0.00000000  see jH, gK, PRB 81, 115126


--------------------------------------------------------------------------------------------------------




--------------------------------------- Iteration      1(   8)  ---------------------------------------


    POTLOK:  cpu time    0.8599: real time    0.8716
    SETDIJ:  cpu time    3.6143: real time    3.7838
    TRIAL :  cpu time  929.8064: real time  946.5676
    CORREC:  cpu time  931.2571: real time  947.1713
    CHARGE:  cpu time    2.0607: real time    2.3248
    --------------------------------------------
      LOOP:  cpu time 1867.7015: real time 1900.9368

 eigenvalue-minimisations  :     0
 total energy-change (2. order) :-0.3687266E-04  (-0.6070091E-04)
 number of electron     581.0000007 magnetization       0.2426078     -0.0000558      0.7526045
 augmentation part      148.2764997 magnetization      -0.0165872      0.0000033     -0.0504100

 Free energy of the ion-electron system (eV)
  ---------------------------------------------------
  alpha Z        PSCENC =      1578.64215378
  Ewald energy   TEWEN  =    -33459.92619359
  -Hartree energ DENC   =    -16386.71230834
  -exchange      EXHF   =      1549.41206699
  -V(xc)+E(xc)   XCENC  =      -613.77421570
  PAW double counting   =    163802.15910383  -161857.35162289
  entropy T*S    EENTRO =        -0.00000000
  eigenvalues    EBANDS =     -3484.71367018
  atomic energy  EATOM  =     48651.83435161
  ---------------------------------------------------
  free energy    TOTEN  =      -220.43033449 eV

  energy without entropy =     -220.43033449  energy(sigma->0) =     -220.43033449
  exchange ACFDT corr.  =        -0.00000000  see jH, gK, PRB 81, 115126


--------------------------------------------------------------------------------------------------------




--------------------------------------- Iteration      1(   9)  ---------------------------------------


    POTLOK:  cpu time    0.8089: real time    0.8431
    SETDIJ:  cpu time    3.6982: real time    3.7287
    TRIAL :  cpu time  932.4226: real time  949.1926
    CORREC:  cpu time  933.3190: real time  949.5685
    CHARGE:  cpu time    2.3370: real time    2.3937
    --------------------------------------------
      LOOP:  cpu time 1872.6945: real time 1905.9497

 eigenvalue-minimisations  :     0
 total energy-change (2. order) :-0.5669307E-04  (-0.1107127E-03)
 number of electron     581.0000007 magnetization       0.3298790     -0.0000859      0.6959392
 augmentation part      148.2767476 magnetization      -0.0223760      0.0000069     -0.0468921

 Free energy of the ion-electron system (eV)
  ---------------------------------------------------
  alpha Z        PSCENC =      1578.64215378
  Ewald energy   TEWEN  =    -33459.92619359
  -Hartree energ DENC   =    -16386.68093265
  -exchange      EXHF   =      1549.41033144
  -V(xc)+E(xc)   XCENC  =      -613.77492291
  PAW double counting   =    163797.72742148  -161852.91796473
  entropy T*S    EENTRO =        -0.00000000
  eigenvalues    EBANDS =     -3484.74463561
  atomic energy  EATOM  =     48651.83435161
  ---------------------------------------------------
  free energy    TOTEN  =      -220.43039118 eV

  energy without entropy =     -220.43039118  energy(sigma->0) =     -220.43039118
  exchange ACFDT corr.  =        -0.00000000  see jH, gK, PRB 81, 115126


--------------------------------------------------------------------------------------------------------




--------------------------------------- Iteration      1(  10)  ---------------------------------------


    POTLOK:  cpu time    0.8434: real time    0.9106
    SETDIJ:  cpu time    3.6883: real time    3.7442
    TRIAL :  cpu time  932.2974: real time  948.9263
    CORREC:  cpu time  931.4028: real time  947.8532
    CHARGE:  cpu time    2.3081: real time    2.3614
    --------------------------------------------
      LOOP:  cpu time 1870.5909: real time 1903.9465

 eigenvalue-minimisations  :     0
 total energy-change (2. order) :-0.9441430E-04  (-0.9595792E-04)
 number of electron     581.0000007 magnetization       0.4142710     -0.0001131      0.6318878
 augmentation part      148.2768757 magnetization      -0.0280211      0.0000091     -0.0427999

 Free energy of the ion-electron system (eV)
  ---------------------------------------------------
  alpha Z        PSCENC =      1578.64215378
  Ewald energy   TEWEN  =    -33459.92619359
  -Hartree energ DENC   =    -16386.70108919
  -exchange      EXHF   =      1549.41129900
  -V(xc)+E(xc)   XCENC  =      -613.77455265
  PAW double counting   =    163793.75126245  -161848.94102221
  entropy T*S    EENTRO =        -0.00000000
  eigenvalues    EBANDS =     -3484.72669480
  atomic energy  EATOM  =     48651.83435161
  ---------------------------------------------------
  free energy    TOTEN  =      -220.43048560 eV

  energy without entropy =     -220.43048560  energy(sigma->0) =     -220.43048560
  exchange ACFDT corr.  =        -0.00000000  see jH, gK, PRB 81, 115126


--------------------------------------------------------------------------------------------------------




--------------------------------------- Iteration      1(  11)  ---------------------------------------


    POTLOK:  cpu time    0.8266: real time    0.8306
    SETDIJ:  cpu time    4.1246: real time    4.1818
    TRIAL :  cpu time  933.7216: real time  950.3798
    CORREC:  cpu time  933.2342: real time  949.3194
    CHARGE:  cpu time    2.2744: real time    2.3250
    --------------------------------------------
      LOOP:  cpu time 1874.2035: real time 1907.1944

 eigenvalue-minimisations  :     0
 total energy-change (2. order) :-0.1041549E-03  (-0.8956613E-04)
 number of electron     581.0000007 magnetization       0.4749119     -0.0001313      0.5798235
 augmentation part      148.2767143 magnetization      -0.0320543      0.0000092     -0.0394070

 Free energy of the ion-electron system (eV)
  ---------------------------------------------------
  alpha Z        PSCENC =      1578.64215378
  Ewald energy   TEWEN  =    -33459.92619359
  -Hartree energ DENC   =    -16386.72806020
  -exchange      EXHF   =      1549.41431724
  -V(xc)+E(xc)   XCENC  =      -613.77385153
  PAW double counting   =    163793.21092221  -161848.40054840
  entropy T*S    EENTRO =        -0.00000000
  eigenvalues    EBANDS =     -3484.70368086
  atomic energy  EATOM  =     48651.83435161
  ---------------------------------------------------
  free energy    TOTEN  =      -220.43058975 eV

  energy without entropy =     -220.43058975  energy(sigma->0) =     -220.43058975
  exchange ACFDT corr.  =        -0.00000000  see jH, gK, PRB 81, 115126


--------------------------------------------------------------------------------------------------------




--------------------------------------- Iteration      1(  12)  ---------------------------------------


    POTLOK:  cpu time    0.7502: real time    0.8052
    SETDIJ:  cpu time    3.5171: real time    3.7416
    TRIAL :  cpu time  934.2537: real time  950.7084
    CORREC:  cpu time  934.1455: real time  950.0855
    CHARGE:  cpu time    2.2991: real time    2.3320
    --------------------------------------------
      LOOP:  cpu time 1874.9752: real time 1907.7781

 eigenvalue-minimisations  :     0
 total energy-change (2. order) :-0.1047734E-03  (-0.8705133E-04)
 number of electron     581.0000007 magnetization       0.5224928     -0.0001440      0.5352909
 augmentation part      148.2765136 magnetization      -0.0351866      0.0000082     -0.0364682

 Free energy of the ion-electron system (eV)
  ---------------------------------------------------
  alpha Z        PSCENC =      1578.64215378
  Ewald energy   TEWEN  =    -33459.92619359
  -Hartree energ DENC   =    -16386.72366832
  -exchange      EXHF   =      1549.41669062
  -V(xc)+E(xc)   XCENC  =      -613.77369539
  PAW double counting   =    163794.89038976  -161850.07961587
  entropy T*S    EENTRO =        -0.00000000
  eigenvalues    EBANDS =     -3484.71110711
  atomic energy  EATOM  =     48651.83435161
  ---------------------------------------------------
  free energy    TOTEN  =      -220.43069453 eV

  energy without entropy =     -220.43069453  energy(sigma->0) =     -220.43069453
  exchange ACFDT corr.  =        -0.00000000  see jH, gK, PRB 81, 115126


--------------------------------------------------------------------------------------------------------




--------------------------------------- Iteration      1(  13)  ---------------------------------------


    POTLOK:  cpu time    0.8134: real time    0.8210
    SETDIJ:  cpu time    3.7766: real time    3.8059
    TRIAL :  cpu time  932.0010: real time  948.4372
    CORREC:  cpu time  930.3816: real time  946.3468
    CHARGE:  cpu time    2.3370: real time    2.3906
    --------------------------------------------
      LOOP:  cpu time 1869.3116: real time 1901.9101

 eigenvalue-minimisations  :     0
 total energy-change (2. order) :-0.9725457E-04  (-0.7245683E-04)
 number of electron     581.0000007 magnetization       0.5585882     -0.0001520      0.4993399
 augmentation part      148.2764824 magnetization      -0.0375391      0.0000072     -0.0340855

 Free energy of the ion-electron system (eV)
  ---------------------------------------------------
  alpha Z        PSCENC =      1578.64215378
  Ewald energy   TEWEN  =    -33459.92619359
  -Hartree energ DENC   =    -16386.71225312
  -exchange      EXHF   =      1549.41850787
  -V(xc)+E(xc)   XCENC  =      -613.77367816
  PAW double counting   =    163797.42537244  -161852.61455413
  entropy T*S    EENTRO =        -0.00000000
  eigenvalues    EBANDS =     -3484.72449847
  atomic energy  EATOM  =     48651.83435161
  ---------------------------------------------------
  free energy    TOTEN  =      -220.43079178 eV

  energy without entropy =     -220.43079178  energy(sigma->0) =     -220.43079178
  exchange ACFDT corr.  =        -0.00000000  see jH, gK, PRB 81, 115126


--------------------------------------------------------------------------------------------------------




--------------------------------------- Iteration      1(  14)  ---------------------------------------


    POTLOK:  cpu time    0.8088: real time    0.8604
    SETDIJ:  cpu time    3.9621: real time    4.0134
    TRIAL :  cpu time  932.0593: real time  948.4506
    CORREC:  cpu time  930.3669: real time  946.4606
    CHARGE:  cpu time    2.3184: real time    2.3521
    --------------------------------------------
      LOOP:  cpu time 1869.5178: real time 1902.2488

 eigenvalue-minimisations  :     0
 total energy-change (2. order) :-0.7759324E-04  (-0.5865439E-04)
 number of electron     581.0000007 magnetization       0.5859159     -0.0001563      0.4709811
 augmentation part      148.2765686 magnetization      -0.0393076      0.0000067     -0.0322058

 Free energy of the ion-electron system (eV)
  ---------------------------------------------------
  alpha Z        PSCENC =      1578.64215378
  Ewald energy   TEWEN  =    -33459.92619359
  -Hartree energ DENC   =    -16386.71840542
  -exchange      EXHF   =      1549.42007809
  -V(xc)+E(xc)   XCENC  =      -613.77338926
  PAW double counting   =    163799.83241091  -161855.02249480
  entropy T*S    EENTRO =        -0.00000000
  eigenvalues    EBANDS =     -3484.71938069
  atomic energy  EATOM  =     48651.83435161
  ---------------------------------------------------
  free energy    TOTEN  =      -220.43086937 eV

  energy without entropy =     -220.43086937  energy(sigma->0) =     -220.43086937
  exchange ACFDT corr.  =        -0.00000000  see jH, gK, PRB 81, 115126


--------------------------------------------------------------------------------------------------------




--------------------------------------- Iteration      1(  15)  ---------------------------------------


    POTLOK:  cpu time    0.7422: real time    0.7898
    SETDIJ:  cpu time    3.8390: real time    3.9215
    TRIAL :  cpu time  934.5812: real time  950.8174
    CORREC:  cpu time  932.0375: real time  948.3412
    CHARGE:  cpu time    2.3176: real time    2.3503
    --------------------------------------------
      LOOP:  cpu time 1873.5743: real time 1906.3623

 eigenvalue-minimisations  :     0
 total energy-change (2. order) :-0.6029422E-04  (-0.4718681E-04)
 number of electron     581.0000007 magnetization       0.6069967     -0.0001581      0.4485716
 augmentation part      148.2766310 magnetization      -0.0406690      0.0000067     -0.0307177

 Free energy of the ion-electron system (eV)
  ---------------------------------------------------
  alpha Z        PSCENC =      1578.64215378
  Ewald energy   TEWEN  =    -33459.92619359
  -Hartree energ DENC   =    -16386.73603376
  -exchange      EXHF   =      1549.42120013
  -V(xc)+E(xc)   XCENC  =      -613.77297107
  PAW double counting   =    163801.80782598  -161856.99932946
  entropy T*S    EENTRO =        -0.00000000
  eigenvalues    EBANDS =     -3484.70193328
  atomic energy  EATOM  =     48651.83435161
  ---------------------------------------------------
  free energy    TOTEN  =      -220.43092967 eV

  energy without entropy =     -220.43092967  energy(sigma->0) =     -220.43092967
  exchange ACFDT corr.  =        -0.00000000  see jH, gK, PRB 81, 115126


--------------------------------------------------------------------------------------------------------




--------------------------------------- Iteration      1(  16)  ---------------------------------------


    POTLOK:  cpu time    0.7843: real time    0.7916
    SETDIJ:  cpu time    3.8285: real time    3.8601
    TRIAL :  cpu time  933.1990: real time  949.7349
    CORREC:  cpu time  931.3749: real time  947.5553
    CHARGE:  cpu time    2.3593: real time    2.3880
    --------------------------------------------
      LOOP:  cpu time 1871.5661: real time 1904.4199

 eigenvalue-minimisations  :     0
 total energy-change (2. order) :-0.4684000E-04  (-0.3868477E-04)
 number of electron     581.0000007 magnetization       0.6237557     -0.0001586      0.4305504
 augmentation part      148.2765766 magnetization      -0.0417560      0.0000071     -0.0295121

 Free energy of the ion-electron system (eV)
  ---------------------------------------------------
  alpha Z        PSCENC =      1578.64215378
  Ewald energy   TEWEN  =    -33459.92619359
  -Hartree energ DENC   =    -16386.74852022
  -exchange      EXHF   =      1549.42159828
  -V(xc)+E(xc)   XCENC  =      -613.77272094
  PAW double counting   =    163803.49032254  -161858.68302205
  entropy T*S    EENTRO =        -0.00000000
  eigenvalues    EBANDS =     -3484.68894592
  atomic energy  EATOM  =     48651.83435161
  ---------------------------------------------------
  free energy    TOTEN  =      -220.43097651 eV

  energy without entropy =     -220.43097651  energy(sigma->0) =     -220.43097651
  exchange ACFDT corr.  =        -0.00000000  see jH, gK, PRB 81, 115126


--------------------------------------------------------------------------------------------------------




--------------------------------------- Iteration      1(  17)  ---------------------------------------


    POTLOK:  cpu time    0.9170: real time    0.9248
    SETDIJ:  cpu time    3.8379: real time    3.8676
    TRIAL :  cpu time  932.0903: real time  948.4969
    CORREC:  cpu time  932.5440: real time  948.6981
    CHARGE:  cpu time    2.3788: real time    2.4258
    --------------------------------------------
      LOOP:  cpu time 1871.9772: real time 1904.7001

 eigenvalue-minimisations  :     0
 total energy-change (2. order) :-0.3732918E-04  (-0.3221228E-04)
 number of electron     581.0000007 magnetization       0.6374023     -0.0001585      0.4158339
 augmentation part      148.2764524 magnetization      -0.0426529      0.0000077     -0.0285175

 Free energy of the ion-electron system (eV)
  ---------------------------------------------------
  alpha Z        PSCENC =      1578.64215378
  Ewald energy   TEWEN  =    -33459.92619359
  -Hartree energ DENC   =    -16386.74532260
  -exchange      EXHF   =      1549.42119593
  -V(xc)+E(xc)   XCENC  =      -613.77280946
  PAW double counting   =    163805.08640719  -161860.27968432
  entropy T*S    EENTRO =        -0.00000000
  eigenvalues    EBANDS =     -3484.69111238
  atomic energy  EATOM  =     48651.83435161
  ---------------------------------------------------
  free energy    TOTEN  =      -220.43101384 eV

  energy without entropy =     -220.43101384  energy(sigma->0) =     -220.43101384
  exchange ACFDT corr.  =        -0.00000000  see jH, gK, PRB 81, 115126


--------------------------------------------------------------------------------------------------------




--------------------------------------- Iteration      1(  18)  ---------------------------------------


    POTLOK:  cpu time    0.7870: real time    0.7910
    SETDIJ:  cpu time    3.7274: real time    3.7762
    TRIAL :  cpu time  935.4790: real time  951.9262
    CORREC:  cpu time  931.1119: real time  947.3344
    CHARGE:  cpu time    2.3101: real time    2.3565
    --------------------------------------------
      LOOP:  cpu time 1873.4178: real time 1906.5486

 eigenvalue-minimisations  :     0
 total energy-change (2. order) :-0.3043814E-04  (-0.2570698E-04)
 number of electron     581.0000007 magnetization       0.6481382     -0.0001581      0.4043133
 augmentation part      148.2763817 magnetization      -0.0433724      0.0000085     -0.0277320

 Free energy of the ion-electron system (eV)
  ---------------------------------------------------
  alpha Z        PSCENC =      1578.64215378
  Ewald energy   TEWEN  =    -33459.92619359
  -Hartree energ DENC   =    -16386.73227980
  -exchange      EXHF   =      1549.42031259
  -V(xc)+E(xc)   XCENC  =      -613.77309973
  PAW double counting   =    163806.61308085  -161861.80649633
  entropy T*S    EENTRO =        -0.00000000
  eigenvalues    EBANDS =     -3484.70287365
  atomic energy  EATOM  =     48651.83435161
  ---------------------------------------------------
  free energy    TOTEN  =      -220.43104427 eV

  energy without entropy =     -220.43104427  energy(sigma->0) =     -220.43104427
  exchange ACFDT corr.  =        -0.00000000  see jH, gK, PRB 81, 115126


--------------------------------------------------------------------------------------------------------




--------------------------------------- Iteration      1(  19)  ---------------------------------------


    POTLOK:  cpu time    0.8493: real time    0.8599
    SETDIJ:  cpu time    3.7790: real time    3.8092
    TRIAL :  cpu time  933.0588: real time  949.4640
    CORREC:  cpu time  932.5310: real time  948.8435
    CHARGE:  cpu time    2.2770: real time    2.3432
    --------------------------------------------
      LOOP:  cpu time 1872.5581: real time 1905.4217

 eigenvalue-minimisations  :     0
 total energy-change (2. order) :-0.2391622E-04  (-0.2049357E-04)
 number of electron     581.0000007 magnetization       0.6566284     -0.0001576      0.3953132
 augmentation part      148.2763917 magnetization      -0.0439543      0.0000094     -0.0271145

 Free energy of the ion-electron system (eV)
  ---------------------------------------------------
[...]
 l=   3
     0.0000000     0.0000000     0.0000000     0.0000000     0.0000000     0.0000000     0.0000000
     0.0000000     0.0000000     0.0000000     0.0000000     0.0000000     0.0000000     0.0000000
     0.0000000     0.0000000     0.0000000     0.0000000     0.0000000     0.0000000     0.0000000
     0.0000000     0.0000000     0.0000000     0.0000000     0.0000000     0.0000000     0.0000000
     0.0000000     0.0000000     0.0000000     0.0000000     0.0000000     0.0000000     0.0000000
     0.0000000     0.0000000     0.0000000     0.0000000     0.0000000     0.0000000     0.0000000
     0.0000000     0.0000000     0.0000000     0.0000000     0.0000000     0.0000000     0.0000000

 Ion:   61  E_soc:     -0.1772792
 l=   1
     0.0000000    -0.0296909    -0.0293518
    -0.0296909     0.0000000    -0.0293979
    -0.0293518    -0.0293979     0.0000000
 l=   2
     0.0000000    -0.0000321     0.0000000    -0.0000327    -0.0000336
    -0.0000321     0.0000000    -0.0000258    -0.0000322    -0.0000083
     0.0000000    -0.0000258     0.0000000    -0.0000247     0.0000000
    -0.0000327    -0.0000322    -0.0000247     0.0000000    -0.0000096
    -0.0000336    -0.0000083     0.0000000    -0.0000096     0.0000000
 l=   3
     0.0000000     0.0000000     0.0000000     0.0000000     0.0000000     0.0000000     0.0000000
     0.0000000     0.0000000     0.0000000     0.0000000     0.0000000     0.0000000     0.0000000
     0.0000000     0.0000000     0.0000000     0.0000000     0.0000000     0.0000000     0.0000000
     0.0000000     0.0000000     0.0000000     0.0000000     0.0000000     0.0000000     0.0000000
     0.0000000     0.0000000     0.0000000     0.0000000     0.0000000     0.0000000     0.0000000
     0.0000000     0.0000000     0.0000000     0.0000000     0.0000000     0.0000000     0.0000000
     0.0000000     0.0000000     0.0000000     0.0000000     0.0000000     0.0000000     0.0000000

 Ion:   62  E_soc:     -0.1772794
 l=   1
     0.0000000    -0.0296903    -0.0293521
    -0.0296903     0.0000000    -0.0293983
    -0.0293521    -0.0293983     0.0000000
 l=   2
     0.0000000    -0.0000321     0.0000000    -0.0000327    -0.0000336
    -0.0000321     0.0000000    -0.0000258    -0.0000322    -0.0000083
     0.0000000    -0.0000258     0.0000000    -0.0000247     0.0000000
    -0.0000327    -0.0000322    -0.0000247     0.0000000    -0.0000096
    -0.0000336    -0.0000083     0.0000000    -0.0000096     0.0000000
 l=   3
     0.0000000     0.0000000     0.0000000     0.0000000     0.0000000     0.0000000     0.0000000
     0.0000000     0.0000000     0.0000000     0.0000000     0.0000000     0.0000000     0.0000000
     0.0000000     0.0000000     0.0000000     0.0000000     0.0000000     0.0000000     0.0000000
     0.0000000     0.0000000     0.0000000     0.0000000     0.0000000     0.0000000     0.0000000
     0.0000000     0.0000000     0.0000000     0.0000000     0.0000000     0.0000000     0.0000000
     0.0000000     0.0000000     0.0000000     0.0000000     0.0000000     0.0000000     0.0000000
     0.0000000     0.0000000     0.0000000     0.0000000     0.0000000     0.0000000     0.0000000

 Ion:   63  E_soc:     -0.1769473
 l=   1
     0.0000000    -0.0294612    -0.0294829
    -0.0294612     0.0000000    -0.0293392
    -0.0294829    -0.0293392     0.0000000
 l=   2
     0.0000000    -0.0000290     0.0000000    -0.0000312    -0.0000340
    -0.0000290     0.0000000    -0.0000233    -0.0000299    -0.0000081
     0.0000000    -0.0000233     0.0000000    -0.0000259     0.0000000
    -0.0000312    -0.0000299    -0.0000259     0.0000000    -0.0000091
    -0.0000340    -0.0000081     0.0000000    -0.0000091     0.0000000
 l=   3
     0.0000000     0.0000000     0.0000000     0.0000000     0.0000000     0.0000000     0.0000000
     0.0000000     0.0000000     0.0000000     0.0000000     0.0000000     0.0000000     0.0000000
     0.0000000     0.0000000     0.0000000     0.0000000     0.0000000     0.0000000     0.0000000
     0.0000000     0.0000000     0.0000000     0.0000000     0.0000000     0.0000000     0.0000000
     0.0000000     0.0000000     0.0000000     0.0000000     0.0000000     0.0000000     0.0000000
     0.0000000     0.0000000     0.0000000     0.0000000     0.0000000     0.0000000     0.0000000
     0.0000000     0.0000000     0.0000000     0.0000000     0.0000000     0.0000000     0.0000000

 Ion:   64  E_soc:     -0.1769477
 l=   1
     0.0000000    -0.0294615    -0.0294825
    -0.0294615     0.0000000    -0.0293395
    -0.0294825    -0.0293395     0.0000000
 l=   2
     0.0000000    -0.0000290     0.0000000    -0.0000312    -0.0000340
    -0.0000290     0.0000000    -0.0000232    -0.0000299    -0.0000080
     0.0000000    -0.0000232     0.0000000    -0.0000258     0.0000000
    -0.0000312    -0.0000299    -0.0000258     0.0000000    -0.0000091
    -0.0000340    -0.0000080     0.0000000    -0.0000091     0.0000000
 l=   3
     0.0000000     0.0000000     0.0000000     0.0000000     0.0000000     0.0000000     0.0000000
     0.0000000     0.0000000     0.0000000     0.0000000     0.0000000     0.0000000     0.0000000
     0.0000000     0.0000000     0.0000000     0.0000000     0.0000000     0.0000000     0.0000000
     0.0000000     0.0000000     0.0000000     0.0000000     0.0000000     0.0000000     0.0000000
     0.0000000     0.0000000     0.0000000     0.0000000     0.0000000     0.0000000     0.0000000
     0.0000000     0.0000000     0.0000000     0.0000000     0.0000000     0.0000000     0.0000000
     0.0000000     0.0000000     0.0000000     0.0000000     0.0000000     0.0000000     0.0000000

 Ion:   65  E_soc:     -0.2432522
 l=   1
     0.0000000    -0.0435825    -0.0434982
    -0.0435825     0.0000000    -0.0342915
    -0.0434982    -0.0342915     0.0000000
 l=   2
     0.0000000    -0.0000151     0.0000000    -0.0000267    -0.0000580
    -0.0000151     0.0000000    -0.0000297    -0.0000268    -0.0000281
     0.0000000    -0.0000297     0.0000000    -0.0000520     0.0000000
    -0.0000267    -0.0000268    -0.0000520     0.0000000    -0.0000174
    -0.0000580    -0.0000281     0.0000000    -0.0000174     0.0000000
 l=   3
     0.0000000     0.0000000     0.0000000     0.0000000     0.0000000     0.0000000     0.0000000
     0.0000000     0.0000000     0.0000000     0.0000000     0.0000000     0.0000000     0.0000000
     0.0000000     0.0000000     0.0000000     0.0000000     0.0000000     0.0000000     0.0000000
     0.0000000     0.0000000     0.0000000     0.0000000     0.0000000     0.0000000     0.0000000
     0.0000000     0.0000000     0.0000000     0.0000000     0.0000000     0.0000000     0.0000000
     0.0000000     0.0000000     0.0000000     0.0000000     0.0000000     0.0000000     0.0000000
     0.0000000     0.0000000     0.0000000     0.0000000     0.0000000     0.0000000     0.0000000



 total charge

# of ion       s       p       d       tot
------------------------------------------
    1        0.426   0.294   9.590  10.310
    2        0.443   0.307   9.587  10.337
    3        0.431   0.305   9.588  10.325
    4        0.426   0.294   9.590  10.309
    5        0.432   0.305   9.589  10.326
    6        0.426   0.294   9.590  10.310
    7        0.427   0.298   9.590  10.314
    8        0.431   0.305   9.588  10.325
    9        0.425   0.292   9.590  10.307
   10        0.436   0.277   9.590  10.303
   11        0.429   0.302   9.589  10.320
   12        0.427   0.297   9.590  10.314
   13        0.426   0.296   9.590  10.312
   14        0.425   0.292   9.590  10.307
   15        0.428   0.300   9.589  10.317
   16        0.429   0.302   9.589  10.320
   17        0.432   0.305   9.589  10.326
   18        0.426   0.294   9.590  10.310
   19        0.427   0.298   9.590  10.314
   20        0.431   0.305   9.588  10.325
   21        0.426   0.294   9.590  10.310
   22        0.443   0.307   9.587  10.337
   23        0.431   0.305   9.588  10.325
   24        0.426   0.294   9.590  10.309
   25        0.426   0.296   9.590  10.312
   26        0.425   0.292   9.590  10.307
   27        0.428   0.300   9.589  10.317
   28        0.429   0.302   9.589  10.320
   29        0.425   0.292   9.590  10.307
   30        0.436   0.277   9.590  10.303
   31        0.429   0.302   9.589  10.320
   32        0.427   0.297   9.590  10.314
   33        1.297   2.282   0.019   3.599
   34        1.293   2.287   0.019   3.599
   35        1.292   2.291   0.019   3.602
   36        1.292   2.295   0.019   3.606
   37        1.293   2.287   0.019   3.599
   38        1.297   2.282   0.019   3.599
   39        1.292   2.295   0.019   3.606
   40        1.292   2.291   0.019   3.602
   41        1.292   2.292   0.019   3.604
   42        1.297   2.280   0.020   3.597
   43        1.292   2.292   0.019   3.603
   44        1.293   2.293   0.019   3.606
   45        1.292   2.292   0.019   3.604
   46        1.297   2.280   0.020   3.597
   47        1.292   2.292   0.019   3.603
   48        1.293   2.293   0.019   3.606
   49        1.293   2.299   0.020   3.611
   50        1.292   2.292   0.019   3.603
   51        1.292   2.292   0.019   3.602
   52        1.292   2.302   0.020   3.614
   53        1.292   2.292   0.019   3.603
   54        1.354   2.120   0.040   3.514
   55        1.292   2.302   0.020   3.614
   56        1.292   2.293   0.019   3.605
   57        1.292   2.292   0.019   3.603
   58        1.292   2.292   0.019   3.603
   59        1.292   2.292   0.019   3.603
   60        1.292   2.292   0.019   3.603
   61        1.297   2.280   0.020   3.597
   62        1.297   2.280   0.020   3.597
   63        1.293   2.293   0.019   3.606
   64        1.293   2.293   0.019   3.606
   65        1.354   2.120   0.040   3.514
--------------------------------------------------
tot         56.532  84.774 307.531 448.838



 magnetization (x)

# of ion       s       p       d       tot
------------------------------------------
    1       -0.000   0.000  -0.000  -0.000
    2       -0.001  -0.003   0.001  -0.003
    3        0.000   0.001   0.000   0.001
    4       -0.000   0.000   0.000  -0.000
    5       -0.000  -0.000  -0.000  -0.000
    6       -0.000   0.000  -0.000  -0.000
    7       -0.000  -0.000   0.000  -0.000
    8        0.000   0.001   0.000   0.001
    9        0.000   0.000   0.000   0.000
   10       -0.002  -0.003   0.004  -0.001
   11       -0.000   0.000   0.000   0.000
   12       -0.000   0.000   0.000   0.000
   13       -0.000  -0.000  -0.000  -0.000
   14       -0.000  -0.000   0.000  -0.000
   15       -0.000  -0.000   0.000  -0.000
   16        0.000   0.000  -0.000   0.000
   17       -0.000  -0.000  -0.000  -0.000
   18       -0.000   0.000  -0.000  -0.000
   19       -0.000  -0.000   0.000  -0.000
   20        0.000   0.001   0.000   0.001
   21       -0.000   0.000  -0.000  -0.000
   22       -0.001  -0.003   0.001  -0.003
   23        0.000   0.001   0.000   0.001
   24       -0.000   0.000   0.000  -0.000
   25       -0.000  -0.000  -0.000  -0.000
   26       -0.000  -0.000   0.000  -0.000
   27       -0.000  -0.000   0.000  -0.000
   28        0.000   0.000  -0.000   0.000
   29        0.000   0.000   0.000   0.000
   30       -0.002  -0.003   0.004  -0.001
   31       -0.000   0.000   0.000   0.000
   32       -0.000   0.000   0.000   0.000
   33       -0.000  -0.002   0.000  -0.002
   34       -0.000  -0.001  -0.000  -0.001
   35       -0.000  -0.000   0.000  -0.000
   36       -0.000   0.000   0.000   0.000
   37       -0.000  -0.001  -0.000  -0.001
   38       -0.000  -0.002   0.000  -0.002
   39       -0.000   0.000   0.000   0.000
   40       -0.000  -0.000   0.000  -0.000
   41       -0.000   0.000   0.000   0.000
   42        0.001   0.011   0.000   0.012
   43       -0.000  -0.000   0.000  -0.000
   44        0.000   0.001  -0.000   0.001
   45       -0.000   0.000   0.000   0.000
   46        0.001   0.011   0.000   0.012
   47       -0.000  -0.000   0.000  -0.000
   48        0.000   0.001  -0.000   0.001
   49       -0.000  -0.001  -0.000  -0.001
   50       -0.000  -0.000   0.000  -0.000
   51       -0.000  -0.000  -0.000  -0.000
   52        0.000   0.002   0.000   0.002
   53        0.000   0.000  -0.000   0.000
   54        0.004   0.137  -0.000   0.140
   55        0.000   0.002   0.000   0.002
   56       -0.000  -0.000   0.000  -0.000
   57       -0.000  -0.000   0.000  -0.000
   58       -0.000  -0.000   0.000  -0.000
   59       -0.000   0.000   0.000   0.000
   60       -0.000   0.000   0.000   0.000
   61        0.001   0.011   0.000   0.012
   62        0.001   0.011   0.000   0.012
   63        0.000   0.002  -0.000   0.002
   64        0.000   0.002  -0.000   0.002
   65        0.004   0.136  -0.000   0.140
--------------------------------------------------
tot          0.005   0.311   0.010   0.326



 magnetization (y)

# of ion       s       p       d       tot
------------------------------------------
    1       -0.000  -0.000   0.000  -0.000
    2       -0.000  -0.000  -0.000  -0.000
    3       -0.000  -0.001  -0.000  -0.001
    4        0.000   0.000  -0.000   0.000
    5       -0.000   0.000   0.000   0.000
    6        0.000   0.000  -0.000   0.000
    7       -0.000  -0.000   0.000  -0.000
    8        0.000   0.001   0.000   0.001
    9        0.000   0.000   0.000   0.000
   10        0.001   0.001  -0.002   0.001
   11       -0.000  -0.000  -0.000  -0.000
   12       -0.000   0.000   0.000  -0.000
   13       -0.000  -0.000   0.000  -0.000
   14        0.000   0.000   0.000   0.000
   15       -0.000  -0.000   0.000  -0.000
   16       -0.000  -0.000  -0.000  -0.000
   17        0.000  -0.000  -0.000  -0.000
   18       -0.000  -0.000   0.000  -0.000
   19        0.000   0.000  -0.000   0.000
   20       -0.000  -0.001  -0.000  -0.001
   21        0.000   0.000  -0.000   0.000
   22        0.000   0.000   0.000   0.000
   23        0.000   0.001   0.000   0.001
   24       -0.000  -0.000   0.000  -0.000
   25        0.000   0.000  -0.000   0.000
   26       -0.000  -0.000  -0.000  -0.000
   27        0.000   0.000  -0.000   0.000
   28        0.000   0.000   0.000   0.000
   29       -0.000  -0.000  -0.000  -0.000
   30       -0.001  -0.001   0.002  -0.001
   31        0.000   0.000   0.000   0.000
   32        0.000  -0.000  -0.000   0.000
   33       -0.000  -0.000   0.000  -0.000
   34        0.000   0.000   0.000   0.000
   35       -0.000  -0.000   0.000  -0.000
   36       -0.000  -0.000  -0.000  -0.000
   37       -0.000  -0.000  -0.000  -0.000
   38        0.000   0.000  -0.000   0.000
   39        0.000   0.000   0.000   0.000
   40        0.000   0.000  -0.000   0.000
   41        0.000   0.000   0.000   0.000
   42       -0.001  -0.009  -0.000  -0.010
   43       -0.000  -0.000   0.000  -0.000
   44        0.000   0.004   0.000   0.005
   45       -0.000  -0.000  -0.000  -0.000
   46        0.001   0.009   0.000   0.010
   47        0.000   0.000  -0.000   0.000
   48       -0.000  -0.004  -0.000  -0.005
   49        0.000   0.000   0.000   0.000
   50       -0.000  -0.000  -0.000  -0.000
   51        0.000  -0.000   0.000  -0.000
   52        0.000   0.000  -0.000   0.000
   53        0.000   0.000   0.000   0.000
   54        0.000   0.000  -0.000   0.000
   55       -0.000  -0.000  -0.000  -0.000
   56        0.000   0.000  -0.000   0.000
   57       -0.000  -0.000  -0.000  -0.000
   58        0.000   0.000   0.000   0.000
   59        0.000   0.000  -0.000   0.000
   60       -0.000  -0.000   0.000  -0.000
   61        0.001   0.009   0.000   0.010
   62       -0.001  -0.009  -0.000  -0.010
   63       -0.000  -0.004  -0.000  -0.005
   64        0.000   0.004   0.000   0.005
   65       -0.000  -0.000   0.000  -0.000
--------------------------------------------------
tot         -0.000  -0.000  -0.000  -0.000



 magnetization (z)

# of ion       s       p       d       tot
------------------------------------------
    1       -0.000   0.000  -0.000  -0.000
    2       -0.001  -0.003   0.001  -0.003
    3        0.000   0.001   0.000   0.001
    4       -0.000   0.000   0.000  -0.000
    5       -0.000  -0.000  -0.000  -0.000
    6       -0.000   0.000  -0.000  -0.000
    7       -0.000  -0.000   0.000  -0.000
    8        0.000   0.001   0.000   0.001
    9       -0.000  -0.000   0.000  -0.000
   10       -0.002  -0.003   0.004  -0.001
   11        0.000   0.000  -0.000   0.000
   12       -0.000   0.000   0.000   0.000
   13       -0.000  -0.000  -0.000  -0.000
   14        0.000   0.000   0.000   0.000
   15       -0.000  -0.000   0.000  -0.000
   16       -0.000   0.000   0.000   0.000
   17       -0.000  -0.000  -0.000  -0.000
   18       -0.000   0.000  -0.000  -0.000
   19       -0.000  -0.000   0.000  -0.000
   20        0.000   0.001   0.000   0.001
   21       -0.000   0.000  -0.000  -0.000
   22       -0.001  -0.003   0.001  -0.003
   23        0.000   0.001   0.000   0.001
   24       -0.000   0.000   0.000  -0.000
   25       -0.000  -0.000  -0.000  -0.000
   26        0.000   0.000   0.000   0.000
   27       -0.000  -0.000   0.000  -0.000
   28       -0.000   0.000   0.000   0.000
   29       -0.000  -0.000   0.000  -0.000
   30       -0.002  -0.003   0.004  -0.001
   31        0.000   0.000  -0.000   0.000
   32       -0.000   0.000   0.000   0.000
   33       -0.000  -0.002   0.000  -0.002
   34       -0.000  -0.001  -0.000  -0.001
   35       -0.000  -0.000   0.000  -0.000
   36       -0.000   0.000   0.000   0.000
   37       -0.000  -0.001  -0.000  -0.001
   38       -0.000  -0.002   0.000  -0.002
   39       -0.000   0.000   0.000   0.000
   40       -0.000  -0.000   0.000  -0.000
   41       -0.000  -0.000   0.000  -0.000
   42        0.001   0.011   0.000   0.012
   43       -0.000   0.000   0.000   0.000
   44        0.000   0.002  -0.000   0.002
   45       -0.000  -0.000   0.000  -0.000
   46        0.001   0.011   0.000   0.012
   47       -0.000   0.000   0.000   0.000
   48        0.000   0.002  -0.000   0.002
   49       -0.000  -0.001  -0.000  -0.001
   50        0.000   0.000  -0.000   0.000
   51       -0.000  -0.000  -0.000  -0.000
   52        0.000   0.002   0.000   0.002
   53       -0.000  -0.000   0.000  -0.000
   54        0.004   0.140  -0.000   0.144
   55        0.000   0.002   0.000   0.002
   56       -0.000  -0.000   0.000  -0.000
   57       -0.000   0.000   0.000   0.000
   58       -0.000   0.000   0.000   0.000
   59       -0.000  -0.000   0.000  -0.000
   60       -0.000  -0.000   0.000  -0.000
   61        0.001   0.011   0.000   0.012
   62        0.001   0.011   0.000   0.012
   63        0.000   0.001  -0.000   0.001
   64        0.000   0.001  -0.000   0.001
   65        0.004   0.140  -0.000   0.144
--------------------------------------------------
tot          0.005   0.319   0.010   0.335
 

 total amount of memory used by VASP MPI-rank0   213722. kBytes
=======================================================================

   base      :      30000. kBytes
   nonl-proj :      13590. kBytes
   fftplans  :       9258. kBytes
   grid      :      18284. kBytes
   one-center:        373. kBytes
   HF        :        129. kBytes
   nonlr-proj:      10623. kBytes
   wavefun   :      76677. kBytes
   fock_wrk  :      54788. kBytes
 
  
  
 General timing and accounting informations for this job:
 ========================================================
  
                  Total CPU time used (sec):   112171.609
                            User time (sec):   111909.830
                          System time (sec):      261.776
                         Elapsed time (sec):   116836.433
  
                   Maximum memory used (kb):     1425780.
                   Average memory used (kb):          N/A
  
                          Minor page faults:      9139270
                          Major page faults:            1
                 Voluntary context switches:     19635367
