<PP_INFO>
Generated using Vanderbilt code, version   7  3  6                              
Author: kfg        Generation date:   13    5 2013                              
Automatically converted from original format                                    
    1        The Pseudo was generated with a Scalar-Relativistic Calculation
  2.30000000000E+00    Local Potential cutoff radius
nl pn  l   occ               Rcut            Rcut US             E pseu
5S  5  0  2.00      0.00000000000      2.00000000000     -1.96466343500
5P  5  1  6.00      0.00000000000      2.00000000000     -0.99359768300
5D  5  2  0.00      0.00000000000      2.20000000000     -0.02821609200
6S  6  0  1.00      0.00000000000      2.00000000000     -0.15333497100
6P  6  1  0.00      0.00000000000      2.00000000000     -0.05427914400
</PP_INFO>


<PP_HEADER>
   0                   Version Number
  Cs                   Element
   US                  Ultrasoft pseudopotential
    T                  Nonlinear Core Correction
SLA  PW   PBE  PBE     PBE  Exchange-Correlation functional
    9.00000000000      Z valence
  -63.00384417630      Total energy
    0.00000    0.00000 Suggested cutoff for wfc and rho
    2                  Max angular momentum component
  905                  Number of points in mesh
    5    6             Number of Wavefunctions, Number of Projectors
 Wavefunctions         nl  l   occ
                       5S  0  2.00
                       5P  1  6.00
                       5D  2  0.00
                       6S  0  1.00
                       6P  1  0.00
</PP_HEADER>


<PP_MESH>
  <PP_R>
  0.00000000000E+00  7.70378346908E-07  1.55392523651E-06  2.35086576665E-06
  3.16142888294E-06  3.98584744447E-06  4.82435829074E-06  5.67720230969E-06
  6.54462450690E-06  7.42687407599E-06  8.32420447018E-06  9.23687347513E-06
  1.01651432830E-05  1.11092805677E-05  1.20695565617E-05  1.30462471336E-05
  1.40396328677E-05  1.50499991446E-05  1.60776362229E-05  1.71228393228E-05
  1.81859087111E-05  1.92671497869E-05  2.03668731700E-05  2.14853947894E-05
  2.26230359749E-05  2.37801235488E-05  2.49569899199E-05  2.61539731792E-05
  2.73714171968E-05  2.86096717207E-05  2.98690924777E-05  3.11500412748E-05
  3.24528861039E-05  3.37780012470E-05  3.51257673842E-05  3.64965717026E-05
  3.78908080076E-05  3.93088768365E-05  4.07511855729E-05  4.22181485643E-05
  4.37101872407E-05  4.52277302359E-05  4.67712135108E-05  4.83410804781E-05
  4.99377821303E-05  5.15617771689E-05  5.32135321362E-05  5.48935215495E-05
  5.66022280371E-05  5.83401424775E-05  6.01077641398E-05  6.19056008274E-05
  6.37341690242E-05  6.55939940423E-05  6.74856101735E-05  6.94095608425E-05
  7.13663987631E-05  7.33566860969E-05  7.53809946151E-05  7.74399058622E-05
  7.95340113236E-05  8.16639125953E-05  8.38302215568E-05  8.60335605466E-05
  8.82745625415E-05  9.05538713379E-05  9.28721417371E-05  9.52300397334E-05
  9.76282427052E-05  1.00067439610E-04  1.02548331181E-04  1.05071630132E-04
  1.07638061357E-04  1.10248362141E-04  1.12903282375E-04  1.15603584765E-04
  1.18350045055E-04  1.21143452251E-04  1.23984608845E-04  1.26874331046E-04
  1.29813449014E-04  1.32802807103E-04  1.35843264096E-04  1.38935693457E-04
  1.42080983583E-04  1.45280038055E-04  1.48533775897E-04  1.51843131847E-04
  1.55209056619E-04  1.58632517177E-04  1.62114497015E-04  1.65655996439E-04
  1.69258032854E-04  1.72921641053E-04  1.76647873522E-04  1.80437800735E-04
  1.84292511464E-04  1.88213113093E-04  1.92200731936E-04  1.96256513557E-04
  2.00381623105E-04  2.04577245644E-04  2.08844586494E-04  2.13184871581E-04
  2.17599347784E-04  2.22089283296E-04  2.26655967990E-04  2.31300713786E-04
  2.36024855028E-04  2.40829748873E-04  2.45716775671E-04  2.50687339373E-04
  2.55742867923E-04  2.60884813679E-04  2.66114653822E-04  2.71433890782E-04
  2.76844052675E-04  2.82346693735E-04  2.87943394765E-04  2.93635763588E-04
  2.99425435511E-04  3.05314073796E-04  3.11303370134E-04  3.17395045134E-04
  3.23590848816E-04  3.29892561116E-04  3.36301992393E-04  3.42820983952E-04
  3.49451408574E-04  3.56195171051E-04  3.63054208737E-04  3.70030492098E-04
  3.77126025288E-04  3.84342846715E-04  3.91683029633E-04  3.99148682733E-04
  4.06741950754E-04  4.14465015094E-04  4.22320094441E-04  4.30309445407E-04
  4.38435363177E-04  4.46700182172E-04  4.55106276712E-04  4.63656061707E-04
  4.72351993344E-04  4.81196569796E-04  4.90192331939E-04  4.99341864081E-04
  5.08647794707E-04  5.18112797228E-04  5.27739590759E-04  5.37530940889E-04
  5.47489660485E-04  5.57618610494E-04  5.67920700767E-04  5.78398890896E-04
  5.89056191061E-04  5.99895662899E-04  6.10920420381E-04  6.22133630705E-04
  6.33538515211E-04  6.45138350301E-04  6.56936468382E-04  6.68936258827E-04
  6.81141168942E-04  6.93554704962E-04  7.06180433056E-04  7.19021980351E-04
  7.32083035975E-04  7.45367352117E-04  7.58878745103E-04  7.72621096496E-04
  7.86598354207E-04  8.00814533632E-04  8.15273718804E-04  8.29980063567E-04
  8.44937792769E-04  8.60151203476E-04  8.75624666208E-04  8.91362626190E-04
  9.07369604634E-04  9.23650200035E-04  9.40209089492E-04  9.57051030056E-04
  9.74180860088E-04  9.91603500658E-04  1.00932395695E-03  1.02734731972E-03
  1.04567876672E-03  1.06432356422E-03  1.08328706851E-03  1.10257472744E-03
  1.12219208199E-03  1.14214476783E-03  1.16243851699E-03  1.18307915947E-03
  1.20407262493E-03  1.22542494438E-03  1.24714225193E-03  1.26923078654E-03
  1.29169689383E-03  1.31454702787E-03  1.33778775305E-03  1.36142574600E-03
  1.38546779746E-03  1.40992081422E-03  1.43479182118E-03  1.46008796330E-03
  1.48581650766E-03  1.51198484558E-03  1.53860049471E-03  1.56567110123E-03
  1.59320444198E-03  1.62120842676E-03  1.64969110058E-03  1.67866064596E-03
  1.70812538529E-03  1.73809378322E-03  1.76857444908E-03  1.79957613939E-03
  1.83110776033E-03  1.86317837032E-03  1.89579718263E-03  1.92897356801E-03
  1.96271705740E-03  1.99703734465E-03  2.03194428931E-03  2.06744791948E-03
  2.10355843465E-03  2.14028620868E-03  2.17764179275E-03  2.21563591840E-03
  2.25427950060E-03  2.29358364091E-03  2.33355963064E-03  2.37421895412E-03
  2.41557329200E-03  2.45763452457E-03  2.50041473520E-03  2.54392621383E-03
  2.58818146047E-03  2.63319318878E-03  2.67897432977E-03  2.72553803547E-03
  2.77289768274E-03  2.82106687708E-03  2.87005945657E-03  2.91988949583E-03
  2.97057131007E-03  3.02211945920E-03  3.07454875199E-03  3.12787425037E-03
  3.18211127372E-03  3.23727540329E-03  3.29338248667E-03  3.35044864234E-03
  3.40849026430E-03  3.46752402678E-03  3.52756688904E-03  3.58863610023E-03
  3.65074920436E-03  3.71392404532E-03  3.77817877202E-03  3.84353184360E-03
  3.91000203473E-03  3.97760844101E-03  4.04637048445E-03  4.11630791906E-03
  4.18744083651E-03  4.25978967190E-03  4.33337520967E-03  4.40821858951E-03
  4.48434131248E-03  4.56176524715E-03  4.64051263594E-03  4.72060610143E-03
  4.80206865294E-03  4.88492369308E-03  4.96919502449E-03  5.05490685671E-03
  5.14208381307E-03  5.23075093784E-03  5.32093370337E-03  5.41265801740E-03
  5.50595023058E-03  5.60083714394E-03  5.69734601666E-03  5.79550457387E-03
  5.89534101462E-03  5.99688401999E-03  6.10016276133E-03  6.20520690861E-03
  6.31204663899E-03  6.42071264545E-03  6.53123614564E-03  6.64364889081E-03
  6.75798317498E-03  6.87427184417E-03  6.99254830587E-03  7.11284653861E-03
  7.23520110175E-03  7.35964714539E-03  7.48622042046E-03  7.61495728902E-03
  7.74589473469E-03  7.87907037325E-03  8.01452246349E-03  8.15228991817E-03
  8.29241231523E-03  8.43492990910E-03  8.57988364234E-03  8.72731515735E-03
  8.87726680835E-03  9.02978167355E-03  9.18490356752E-03  9.34267705378E-03
  9.50314745760E-03  9.66636087901E-03  9.83236420608E-03  1.00012051283E-02
  1.01729321505E-02  1.03475946065E-02  1.05252426734E-02  1.07059273861E-02
  1.08897006518E-02  1.10766152650E-02  1.12667249226E-02  1.14600842395E-02
  1.16567487641E-02  1.18567749942E-02  1.20602203936E-02  1.22671434082E-02
  1.24776034829E-02  1.26916610789E-02  1.29093776907E-02  1.31308158642E-02
  1.33560392142E-02  1.35851124430E-02  1.38181013590E-02  1.40550728954E-02
  1.42960951294E-02  1.45412373022E-02  1.47905698382E-02  1.50441643660E-02
  1.53020937384E-02  1.55644320534E-02  1.58312546758E-02  1.61026382585E-02
  1.63786607648E-02  1.66594014906E-02  1.69449410874E-02  1.72353615850E-02
  1.75307464158E-02  1.78311804379E-02  1.81367499604E-02  1.84475427675E-02
  1.87636481438E-02  1.90851569003E-02  1.94121614004E-02  1.97447555860E-02
  2.00830350050E-02  2.04270968386E-02  2.07770399291E-02  2.11329648083E-02
  2.14949737266E-02  2.18631706821E-02  2.22376614508E-02  2.26185536164E-02
  2.30059566021E-02  2.33999817011E-02  2.38007421093E-02  2.42083529574E-02
  2.46229313440E-02  2.50445963696E-02  2.54734691703E-02  2.59096729530E-02
  2.63533330306E-02  2.68045768580E-02  2.72635340689E-02  2.77303365128E-02
  2.82051182930E-02  2.86880158052E-02  2.91791677763E-02  2.96787153049E-02
  3.01868019014E-02  3.07035735292E-02  3.12291786467E-02  3.17637682501E-02
  3.23074959167E-02  3.28605178490E-02  3.34229929194E-02  3.39950827161E-02
  3.45769515895E-02  3.51687666992E-02  3.57706980623E-02  3.63829186019E-02
  3.70056041973E-02  3.76389337339E-02  3.82830891550E-02  3.89382555140E-02
  3.96046210276E-02  4.02823771297E-02  4.09717185264E-02  4.16728432523E-02
  4.23859527269E-02  4.31112518127E-02  4.38489488741E-02  4.45992558373E-02
  4.53623882508E-02  4.61385653480E-02  4.69280101093E-02  4.77309493271E-02
  4.85476136703E-02  4.93782377506E-02  5.02230601903E-02  5.10823236907E-02
  5.19562751013E-02  5.28451654916E-02  5.37492502226E-02  5.46687890204E-02
  5.56040460505E-02  5.65552899943E-02  5.75227941258E-02  5.85068363901E-02
  5.95076994836E-02  6.05256709349E-02  6.15610431874E-02  6.26141136836E-02
  6.36851849503E-02  6.47745646855E-02  6.58825658468E-02  6.70095067417E-02
  6.81557111185E-02  6.93215082593E-02  7.05072330753E-02  7.17132262023E-02
  7.29398340986E-02  7.41874091450E-02  7.54563097458E-02  7.67469004314E-02
  7.80595519636E-02  7.93946414418E-02  8.07525524113E-02  8.21336749738E-02
  8.35384058989E-02  8.49671487388E-02  8.64203139435E-02  8.78983189794E-02
  8.94015884486E-02  9.09305542114E-02  9.24856555101E-02  9.40673390951E-02
  9.56760593536E-02  9.73122784398E-02  9.89764664078E-02  1.00669101346E-01
  1.02390669517E-01  1.04141665493E-01  1.05922592302E-01  1.07733961568E-01
  1.09576293665E-01  1.11450117857E-01  1.13355972459E-01  1.15294404985E-01
  1.17265972310E-01  1.19271240827E-01  1.21310786611E-01  1.23385195584E-01
  1.25495063682E-01  1.27640997032E-01  1.29823612117E-01  1.32043535961E-01
  1.34301406305E-01  1.36597871791E-01  1.38933592150E-01  1.41309238388E-01
  1.43725492984E-01  1.46183050079E-01  1.48682615684E-01  1.51224907874E-01
  1.53810657001E-01  1.56440605900E-01  1.59115510106E-01  1.61836138066E-01
  1.64603271363E-01  1.67417704943E-01  1.70280247337E-01  1.73191720898E-01
  1.76152962037E-01  1.79164821460E-01  1.82228164416E-01  1.85343870945E-01
  1.88512836129E-01  1.91735970350E-01  1.95014199552E-01  1.98348465507E-01
  2.01739726085E-01  2.05188955530E-01  2.08697144739E-01  2.12265301546E-01
  2.15894451014E-01  2.19585635727E-01  2.23339916092E-01  2.27158370639E-01
  2.31042096338E-01  2.34992208908E-01  2.39009843140E-01  2.43096153221E-01
  2.47252313070E-01  2.51479516672E-01  2.55778978420E-01  2.60151933465E-01
  2.64599638075E-01  2.69123369987E-01  2.73724428783E-01  2.78404136258E-01
  2.83163836801E-01  2.88004897782E-01  2.92928709945E-01  2.97936687804E-01
  3.03030270056E-01  3.08210919988E-01  3.13480125900E-01  3.18839401534E-01
  3.24290286505E-01  3.29834346747E-01  3.35473174962E-01  3.41208391075E-01
  3.47041642704E-01  3.52974605628E-01  3.59008984274E-01  3.65146512200E-01
  3.71388952601E-01  3.77738098809E-01  3.84195774810E-01  3.90763835770E-01
  3.97444168565E-01  4.04238692327E-01  4.11149358989E-01  4.18178153854E-01
  4.25327096157E-01  4.32598239652E-01  4.39993673198E-01  4.47515521358E-01
  4.55165945015E-01  4.62947141988E-01  4.70861347663E-01  4.78910835639E-01
  4.87097918379E-01  4.95424947871E-01  5.03894316312E-01  5.12508456786E-01
  5.21269843969E-01  5.30180994839E-01  5.39244469396E-01  5.48462871402E-01
  5.57838849124E-01  5.67375096101E-01  5.77074351911E-01  5.86939402962E-01
  5.96973083294E-01  6.07178275387E-01  6.17557910997E-01  6.28114971992E-01
  6.38852491211E-01  6.49773553335E-01  6.60881295775E-01  6.72178909570E-01
  6.83669640305E-01  6.95356789046E-01  7.07243713283E-01  7.19333827901E-01
  7.31630606156E-01  7.44137580673E-01  7.56858344464E-01  7.69796551959E-01
  7.82955920055E-01  7.96340229183E-01  8.09953324396E-01  8.23799116473E-01
  8.37881583042E-01  8.52204769724E-01  8.66772791292E-01  8.81589832857E-01
  8.96660151070E-01  9.11988075340E-01  9.27578009083E-01  9.43434430986E-01
  9.59561896292E-01  9.75965038110E-01  9.92648568745E-01  1.00961728105E+00
  1.02687604981E+00  1.04442983314E+00  1.06228367390E+00  1.08044270114E+00
  1.09891213162E+00  1.11769727123E+00  1.13680351659E+00  1.15623635654E+00
  1.17600137378E+00  1.19610424640E+00  1.21655074957E+00  1.23734675717E+00
  1.25849824351E+00  1.28001128498E+00  1.30189206188E+00  1.32414686011E+00
  1.34678207307E+00  1.36980420340E+00  1.39321986492E+00  1.41703578449E+00
  1.44125880397E+00  1.46589588216E+00  1.49095409682E+00  1.51644064669E+00
  1.54236285356E+00  1.56872816438E+00  1.59554415339E+00  1.62281852430E+00
  1.65055911253E+00  1.67877388739E+00  1.70747095445E+00  1.73665855783E+00
  1.76634508255E+00  1.79653905698E+00  1.82724915526E+00  1.85848419982E+00
  1.89025316386E+00  1.92256517402E+00  1.95542951289E+00  1.98885562176E+00
  2.02285310332E+00  2.05743172438E+00  2.09260141871E+00  2.12837228988E+00
  2.16475461416E+00  2.20175884351E+00  2.23939560851E+00  2.27767572149E+00
  2.31661017957E+00  2.35621016788E+00  2.39648706272E+00  2.43745243486E+00
  2.47911805287E+00  2.52149588647E+00  2.56459811000E+00  2.60843710588E+00
  2.65302546821E+00  2.69837600637E+00  2.74450174869E+00  2.79141594620E+00
  2.83913207644E+00  2.88766384733E+00  2.93702520112E+00  2.98723031836E+00
  3.03829362201E+00  3.09022978157E+00  3.14305371730E+00  3.19678060448E+00
  3.25142587783E+00  3.30700523585E+00  3.36353464544E+00  3.42103034638E+00
  3.47950885610E+00  3.53898697432E+00  3.59948178797E+00  3.66101067602E+00
  3.72359131455E+00  3.78724168176E+00  3.85198006316E+00  3.91782505684E+00
  3.98479557880E+00  4.05291086836E+00  4.12219049374E+00  4.19265435762E+00
  4.26432270292E+00  4.33721611856E+00  4.41135554540E+00  4.48676228228E+00
  4.56345799209E+00  4.64146470802E+00  4.72080483989E+00  4.80150118059E+00
  4.88357691261E+00  4.96705561472E+00  5.05196126874E+00  5.13831826643E+00
  5.22615141646E+00  5.31548595162E+00  5.40634753597E+00  5.49876227231E+00
  5.59275670958E+00  5.68835785059E+00  5.78559315967E+00  5.88449057066E+00
  5.98507849487E+00  6.08738582926E+00  6.19144196475E+00  6.29727679466E+00
  6.40492072328E+00  6.51440467462E+00  6.62576010132E+00  6.73901899363E+00
  6.85421388864E+00  6.97137787961E+00  7.09054462549E+00  7.21174836059E+00
  7.33502390437E+00  7.46040667154E+00  7.58793268212E+00  7.71763857188E+00
  7.84956160280E+00  7.98373967383E+00  8.12021133171E+00  8.25901578213E+00
  8.40019290091E+00  8.54378324551E+00  8.68982806665E+00  8.83836932018E+00
  8.98944967914E+00  9.14311254599E+00  9.29940206509E+00  9.45836313540E+00
  9.62004142335E+00  9.78448337600E+00  9.95173623434E+00  1.01218480469E+01
  1.02948676834E+01  1.04708448492E+01  1.06498300990E+01  1.08318748519E+01
  1.10170314057E+01  1.12053529525E+01  1.13968935932E+01  1.15917083539E+01
  1.17898532011E+01  1.19913850579E+01  1.21963618205E+01  1.24048423747E+01
  1.26168866132E+01  1.28325554519E+01  1.30519108484E+01  1.32750158193E+01
  1.35019344584E+01  1.37327319548E+01  1.39674746124E+01  1.42062298681E+01
  1.44490663116E+01  1.46960537053E+01  1.49472630037E+01  1.52027663746E+01
  1.54626372189E+01  1.57269501927E+01  1.59957812279E+01  1.62692075544E+01
  1.65473077224E+01  1.68301616247E+01  1.71178505196E+01  1.74104570547E+01
  1.77080652902E+01  1.80107607231E+01  1.83186303119E+01  1.86317625018E+01
  1.89502472494E+01  1.92741760493E+01  1.96036419599E+01  1.99387396305E+01
  2.02795653281E+01  2.06262169653E+01  2.09787941285E+01  2.13373981062E+01
  2.17021319184E+01  2.20731003462E+01  2.24504099614E+01  2.28341691580E+01
  2.32244881825E+01  2.36214791659E+01  2.40252561562E+01  2.44359351506E+01
  2.48536341292E+01  2.52784730890E+01  2.57105740778E+01  2.61500612300E+01
  2.65970608018E+01  2.70517012073E+01  2.75141130561E+01  2.79844291901E+01
  2.84627847221E+01  2.89493170742E+01  2.94441660179E+01  2.99474737137E+01
  3.04593847521E+01  3.09800461953E+01  3.15096076192E+01  3.20482211566E+01
  3.25960415407E+01  3.31532261498E+01  3.37199350521E+01  3.42963310522E+01
  3.48825797375E+01  3.54788495258E+01  3.60853117141E+01  3.67021405271E+01
  3.73295131678E+01  3.79676098682E+01  3.86166139411E+01  3.92767118330E+01
  3.99480931770E+01  4.06309508482E+01  4.13254810182E+01  4.20318832122E+01
  4.27503603658E+01  4.34811188836E+01  4.42243686985E+01  4.49803233316E+01
  4.57491999542E+01  4.65312194496E+01  4.73266064769E+01  4.81355895353E+01
  4.89584010301E+01  4.97952773391E+01  5.06464588806E+01  5.15121901827E+01
  5.23927199531E+01  5.32883011511E+01  5.41991910598E+01  5.51256513602E+01
  5.60679482065E+01  5.70263523023E+01  5.80011389785E+01  5.89925882726E+01
  6.00009850086E+01  6.10266188795E+01  6.20697845301E+01  6.31307816415E+01
  6.42099150179E+01  6.53074946733E+01  6.64238359211E+01  6.75592594645E+01
  6.87140914888E+01  6.98886637549E+01  7.10833136946E+01  7.22983845077E+01
  7.35342252607E+01  7.47911909865E+01  7.60696427872E+01  7.73699479372E+01
  7.86924799890E+01  8.00376188805E+01  8.14057510441E+01  8.27972695176E+01
  8.42125740574E+01  8.56520712531E+01  8.71161746443E+01  8.86053048397E+01
  9.01198896376E+01  9.16603641488E+01  9.32271709218E+01  9.48207600700E+01
  9.64415894006E+01  9.80901245466E+01  9.97668391002E+01  1.01472214749E+02
  1.03206741415E+02  1.04970917393E+02  1.06765249497E+02  1.08590253205E+02
  1.10446452803E+02  1.12334381544E+02  1.14254581791E+02  1.16207605182E+02
  1.18194012782E+02  1.20214375248E+02  1.22269272991E+02  1.24359296342E+02
  1.26485045726E+02  1.28647131829E+02  1.30846175776E+02  1.33082809311E+02
  1.35357674974E+02  1.37671426291E+02  1.40024727958E+02  1.42418256032E+02
  1.44852698128E+02  1.47328753615E+02  1.49847133814E+02  1.52408562209E+02
  1.55013774647E+02  1.57663519555E+02  1.60358558155E+02  1.63099664678E+02
  1.65887626592E+02  1.68723244824E+02  1.71607333993E+02  1.74540722640E+02
  1.77524253473E+02  1.80558783601E+02  1.83645184786E+02  1.86784343693E+02
  1.89977162140E+02  1.93224557363E+02  1.96527462274E+02  1.99886825736E+02
  2.03303612827E+02
  </PP_R>
  <PP_RAB>
  7.63868159219E-07  7.76925419336E-07  7.90205875092E-07  8.03713341705E-07
  8.17451699608E-07  8.31424895566E-07  8.45636943808E-07  8.60091927180E-07
  8.74793998319E-07  8.89747380846E-07  9.04956370578E-07  9.20425336764E-07
  9.36158723338E-07  9.52161050197E-07  9.68436914502E-07  9.84990991991E-07
  1.00182803833E-06  1.01895289048E-06  1.03637046808E-06  1.05408577486E-06
  1.07210390009E-06  1.09043002001E-06  1.10906939939E-06  1.12802739294E-06
  1.14730944693E-06  1.16692110072E-06  1.18686798837E-06  1.20715584022E-06
  1.22779048459E-06  1.24877784940E-06  1.27012396393E-06  1.29183496049E-06
  1.31391707623E-06  1.33637665493E-06  1.35922014878E-06  1.38245412028E-06
  1.40608524409E-06  1.43012030899E-06  1.45456621978E-06  1.47942999929E-06
  1.50471879042E-06  1.53043985813E-06  1.55660059161E-06  1.58320850631E-06
  1.61027124617E-06  1.63779658581E-06  1.66579243271E-06  1.69426682955E-06
  1.72322795646E-06  1.75268413341E-06  1.78264382260E-06  1.81311563087E-06
  1.84410831217E-06  1.87563077011E-06  1.90769206046E-06  1.94030139384E-06
  1.97346813825E-06  2.00720182188E-06  2.04151213575E-06  2.07640893654E-06
  2.11190224945E-06  2.14800227100E-06  2.18471937205E-06  2.22206410069E-06
  2.26004718535E-06  2.29867953783E-06  2.33797225646E-06  2.37793662928E-06
  2.41858413727E-06  2.45992645769E-06  2.50197546738E-06  2.54474324620E-06
  2.58824208052E-06  2.63248446670E-06  2.67748311473E-06  2.72325095184E-06
  2.76980112626E-06  2.81714701094E-06  2.86530220744E-06  2.91428054982E-06
  2.96409610861E-06  3.01476319486E-06  3.06629636423E-06  3.11871042121E-06
  3.17202042335E-06  3.22624168557E-06  3.28138978460E-06  3.33748056341E-06
  3.39453013581E-06  3.45255489103E-06  3.51157149846E-06  3.57159691243E-06
  3.63264837708E-06  3.69474343131E-06  3.75789991383E-06  3.82213596829E-06
  3.88747004844E-06  3.95392092351E-06  4.02150768355E-06  4.09024974493E-06
  4.16016685591E-06  4.23127910233E-06  4.30360691335E-06  4.37717106737E-06
  4.45199269792E-06  4.52809329983E-06  4.60549473532E-06  4.68421924033E-06
  4.76428943089E-06  4.84572830960E-06  4.92855927229E-06  5.01280611469E-06
  5.09849303928E-06  5.18564466226E-06  5.27428602060E-06  5.36444257926E-06
  5.45614023846E-06  5.54940534118E-06  5.64426468066E-06  5.74074550816E-06
  5.83887554076E-06  5.93868296932E-06  6.04019646657E-06  6.14344519539E-06
  6.24845881713E-06  6.35526750017E-06  6.46390192859E-06  6.57439331095E-06
  6.68677338929E-06  6.80107444823E-06  6.91732932425E-06  7.03557141513E-06
  7.15583468953E-06  7.27815369677E-06  7.40256357672E-06  7.52910006995E-06
  7.65779952793E-06  7.78869892353E-06  7.92183586161E-06  8.05724858985E-06
  8.19497600968E-06  8.33505768755E-06  8.47753386620E-06  8.62244547628E-06
  8.76983414810E-06  8.91974222356E-06  9.07221276836E-06  9.22728958433E-06
  9.38501722204E-06  9.54544099360E-06  9.70860698563E-06  9.87456207259E-06
  1.00433539301E-05  1.02150310489E-05  1.03896427485E-05  1.05672391913E-05
  1.07478713975E-05  1.09315912592E-05  1.11184515555E-05  1.13085059678E-05
  1.15018090950E-05  1.16984164694E-05  1.18983845725E-05  1.21017708512E-05
  1.23086337345E-05  1.25190326501E-05  1.27330280415E-05  1.29506813855E-05
  1.31720552096E-05  1.33972131103E-05  1.36262197711E-05  1.38591409812E-05
  1.40960436543E-05  1.43369958479E-05  1.45820667830E-05  1.48313268637E-05
  1.50848476977E-05  1.53427021164E-05  1.56049641966E-05  1.58717092811E-05
  1.61430140005E-05  1.64189562954E-05  1.66996154388E-05  1.69850720585E-05
  1.72754081607E-05  1.75707071534E-05  1.78710538703E-05  1.81765345951E-05
  1.84872370866E-05  1.88032506036E-05  1.91246659306E-05  1.94515754040E-05
  1.97840729386E-05  2.01222540546E-05  2.04662159048E-05  2.08160573028E-05
  2.11718787512E-05  2.15337824707E-05  2.19018724292E-05  2.22762543718E-05
  2.26570358512E-05  2.30443262586E-05  2.34382368551E-05  2.38388808034E-05
  2.42463732008E-05  2.46608311121E-05  2.50823736030E-05  2.55111217745E-05
  2.59471987975E-05  2.63907299487E-05  2.68418426459E-05  2.73006664851E-05
  2.77673332775E-05  2.82419770874E-05  2.87247342708E-05  2.92157435146E-05
  2.97151458760E-05  3.02230848239E-05  3.07397062793E-05  3.12651586573E-05
  3.17995929105E-05  3.23431625714E-05  3.28960237970E-05  3.34583354137E-05
  3.40302589626E-05  3.46119587465E-05  3.52036018764E-05  3.58053583198E-05
  3.64174009499E-05  3.70399055945E-05  3.76730510872E-05  3.83170193185E-05
  3.89719952880E-05  3.96381671576E-05  4.03157263056E-05  4.10048673817E-05
  4.17057883626E-05  4.24186906095E-05  4.31437789254E-05  4.38812616140E-05
  4.46313505401E-05  4.53942611894E-05  4.61702127316E-05  4.69594280825E-05
  4.77621339683E-05  4.85785609910E-05  4.94089436943E-05  5.02535206309E-05
  5.11125344316E-05  5.19862318744E-05  5.28748639556E-05  5.37786859620E-05
  5.46979575443E-05  5.56329427913E-05  5.65839103062E-05  5.75511332836E-05
  5.85348895880E-05  5.95354618334E-05  6.05531374650E-05  6.15882088411E-05
  6.26409733179E-05  6.37117333342E-05  6.48007964986E-05  6.59084756779E-05
  6.70350890868E-05  6.81809603797E-05  6.93464187431E-05  7.05317989907E-05
  7.17374416593E-05  7.29636931067E-05  7.42109056113E-05  7.54794374730E-05
  7.67696531164E-05  7.80819231957E-05  7.94166247005E-05  8.07741410649E-05
  8.21548622769E-05  8.35591849911E-05  8.49875126422E-05  8.64402555611E-05
  8.79178310927E-05  8.94206637159E-05  9.09491851654E-05  9.25038345559E-05
  9.40850585080E-05  9.56933112768E-05  9.73290548822E-05  9.89927592417E-05
  1.00684902305E-04  1.02405970193E-04  1.04156457334E-04  1.05936866610E-04
  1.07747709498E-04  1.09589506218E-04  1.11462785882E-04  1.13368086648E-04
  1.15305955871E-04  1.17276950264E-04  1.19281636055E-04  1.21320589153E-04
  1.23394395308E-04  1.25503650284E-04  1.27648960031E-04  1.29830940855E-04
  1.32050219595E-04  1.34307433808E-04  1.36603231947E-04  1.38938273552E-04
  1.41313229434E-04  1.43728781873E-04  1.46185624809E-04  1.48684464046E-04
  1.51226017453E-04  1.53811015169E-04  1.56440199812E-04  1.59114326698E-04
  1.61834164051E-04  1.64600493227E-04  1.67414108940E-04  1.70275819487E-04
  1.73186446982E-04  1.76146827592E-04  1.79157811777E-04  1.82220264534E-04
  1.85335065647E-04  1.88503109938E-04  1.91725307525E-04  1.95002584083E-04
  1.98335881109E-04  2.01726156197E-04  2.05174383305E-04  2.08681553044E-04
  2.12248672954E-04  2.15876767801E-04  2.19566879866E-04  2.23320069247E-04
  2.27137414162E-04  2.31020011261E-04  2.34968975939E-04  2.38985442657E-04
  2.43070565268E-04  2.47225517348E-04  2.51451492536E-04  2.55749704872E-04
  2.60121389149E-04  2.64567801267E-04  2.69090218596E-04  2.73689940337E-04
  2.78368287901E-04  2.83126605288E-04  2.87966259471E-04  2.92888640787E-04
  2.97895163341E-04  3.02987265412E-04  3.08166409861E-04  3.13434084557E-04
  3.18791802799E-04  3.24241103758E-04  3.29783552911E-04  3.35420742498E-04
  3.41154291973E-04  3.46985848475E-04  3.52917087297E-04  3.58949712368E-04
  3.65085456746E-04  3.71326083111E-04  3.77673384274E-04  3.84129183692E-04
  3.90695335991E-04  3.97373727500E-04  4.04166276792E-04  4.11074935234E-04
  4.18101687550E-04  4.25248552390E-04  4.32517582910E-04  4.39910867363E-04
  4.47430529695E-04  4.55078730160E-04  4.62857665938E-04  4.70769571767E-04
  4.78816720584E-04  4.87001424179E-04  4.95326033859E-04  5.03792941124E-04
  5.12404578353E-04  5.21163419501E-04  5.30071980815E-04  5.39132821551E-04
  5.48348544714E-04  5.57721797803E-04  5.67255273573E-04  5.76951710805E-04
  5.86813895100E-04  5.96844659671E-04  6.07046886164E-04  6.17423505480E-04
  6.27977498622E-04  6.38711897547E-04  6.49629786040E-04  6.60734300600E-04
  6.72028631339E-04  6.83516022900E-04  6.95199775387E-04  7.07083245317E-04
  7.19169846581E-04  7.31463051425E-04  7.43966391449E-04  7.56683458621E-04
  7.69617906309E-04  7.82773450328E-04  7.96153870012E-04  8.09763009297E-04
  8.23604777825E-04  8.37683152068E-04  8.52002176470E-04  8.66565964611E-04
  8.81378700385E-04  8.96444639204E-04  9.11768109221E-04  9.27353512572E-04
  9.43205326642E-04  9.59328105351E-04  9.75726480461E-04  9.92405162907E-04
  1.00936894415E-03  1.02662269756E-03  1.04417137981E-03  1.06202003229E-03
  1.08017378257E-03  1.09863784588E-03  1.11741752658E-03  1.13651821971E-03
  1.15594541254E-03  1.17570468611E-03  1.19580171689E-03  1.21624227837E-03
  1.23703224271E-03  1.25817758248E-03  1.27968437232E-03  1.30155879072E-03
  1.32380712178E-03  1.34643575700E-03  1.36945119716E-03  1.39286005416E-03
  1.41666905289E-03  1.44088503322E-03  1.46551495195E-03  1.49056588476E-03
  1.51604502830E-03  1.54195970225E-03  1.56831735138E-03  1.59512554774E-03
  1.62239199280E-03  1.65012451968E-03  1.67833109541E-03  1.70701982318E-03
  1.73619894472E-03  1.76587684262E-03  1.79606204276E-03  1.82676321677E-03
  1.85798918451E-03  1.88974891658E-03  1.92205153695E-03  1.95490632554E-03
  1.98832272088E-03  2.02231032286E-03  2.05687889547E-03  2.09203836958E-03
  2.12779884583E-03  2.16417059751E-03  2.20116407353E-03  2.23878990139E-03
  2.27705889027E-03  2.31598203411E-03  2.35557051476E-03  2.39583570525E-03
  2.43678917297E-03  2.47844268306E-03  2.52080820178E-03  2.56389789992E-03
  2.60772415631E-03  2.65229956138E-03  2.69763692080E-03  2.74374925910E-03
  2.79064982347E-03  2.83835208754E-03  2.88686975523E-03  2.93621676474E-03
  2.98640729251E-03  3.03745575730E-03  3.08937682436E-03  3.14218540960E-03
  3.19589668390E-03  3.25052607747E-03  3.30608928429E-03  3.36260226658E-03
  3.42008125943E-03  3.47854277545E-03  3.53800360950E-03  3.59848084352E-03
  3.65999185145E-03  3.72255430421E-03  3.78618617480E-03  3.85090574340E-03
  3.91673160271E-03  3.98368266321E-03  4.05177815866E-03  4.12103765157E-03
  4.19148103884E-03  4.26312855751E-03  4.33600079053E-03  4.41011867266E-03
  4.48550349655E-03  4.56217691879E-03  4.64016096618E-03  4.71947804203E-03
  4.80015093259E-03  4.88220281362E-03  4.96565725705E-03  5.05053823772E-03
  5.13687014030E-03  5.22467776626E-03  5.31398634104E-03  5.40482152127E-03
  5.49720940214E-03  5.59117652489E-03  5.68674988446E-03  5.78395693723E-03
  5.88282560890E-03  5.98338430253E-03  6.08566190669E-03  6.18968780376E-03
  6.29549187835E-03  6.40310452594E-03  6.51255666155E-03  6.62387972866E-03
  6.73710570825E-03  6.85226712793E-03  6.96939707137E-03  7.08852918772E-03
  7.20969770134E-03  7.33293742159E-03  7.45828375286E-03  7.58577270474E-03
  7.71544090232E-03  7.84732559677E-03  7.98146467601E-03  8.11789667561E-03
  8.25666078983E-03  8.39779688292E-03  8.54134550056E-03  8.68734788147E-03
  8.83584596933E-03  8.98688242475E-03  9.14050063758E-03  9.29674473937E-03
  9.45565961603E-03  9.61729092072E-03  9.78168508699E-03  9.94888934210E-03
  1.01189517206E-02  1.02919210781E-02  1.04678471054E-02  1.06467803426E-02
  1.08287721938E-02  1.10138749416E-02  1.12021417626E-02  1.13936267422E-02