<?xml version="1.0" encoding="ISO-8859-1"?>
<modeling>
 <generator>
  <i name="program" type="string">vasp </i>
  <i name="version" type="string">5.3.3  </i>
  <i name="subversion" type="string">18Dez12 (build May 22 2013 17:09:39) complex                          parallel </i>
  <i name="platform" type="string">LinuxIFC </i>
  <i name="date" type="string">2013 12 12 </i>
  <i name="time" type="string">10:07:28 </i>
 </generator>
 <incar>
  <i type="string" name="PREC">accurate</i>
  <i type="string" name="ALGO"> Fast</i>
  <i type="int" name="ISPIN">     1</i>
  <i type="int" name="ICHARG">     1</i>
  <i type="int" name="NELM">   100</i>
  <i type="int" name="IBRION">    -1</i>
  <i name="EDIFF">      0.00010000</i>
  <i type="int" name="NSW">     0</i>
  <i type="int" name="ISIF">     1</i>
  <i name="ENCUT">    350.00000000</i>
  <i type="string" name="LREAL"> Auto</i>
  <i type="int" name="ISMEAR">    -5</i>
  <i name="SIGMA">      0.20000000</i>
  <i type="logical" name="LWAVE"> F  </i>
  <i type="logical" name="LORBIT"> F  </i>
  <i type="int" name="NELM">   100</i>
 </incar>
 <kpoints>
  <generation param="Monkhorst-Pack">
   <v type="int" name="divisions">      10       10       10 </v>
   <v name="usershift">      0.00000000       0.00000000       0.00000000 </v>
   <v name="genvec1">      0.10000000       0.00000000       0.00000000 </v>
   <v name="genvec2">     -0.00000000       0.10000000       0.00000000 </v>
   <v name="genvec3">      0.00000000       0.00000000       0.10000000 </v>
   <v name="shift">      0.50000000       0.50000000       0.50000000 </v>
  </generation>
  <varray name="kpointlist" >
   <v>       0.05000000       0.05000000       0.05000000 </v>
   <v>       0.15000000       0.05000000       0.05000000 </v>
   <v>       0.25000000       0.05000000       0.05000000 </v>
   <v>       0.35000000       0.05000000       0.05000000 </v>
   <v>       0.45000000       0.05000000       0.05000000 </v>
   <v>      -0.45000000       0.05000000       0.05000000 </v>
   <v>      -0.35000000       0.05000000       0.05000000 </v>
   <v>      -0.25000000       0.05000000       0.05000000 </v>
   <v>      -0.15000000       0.05000000       0.05000000 </v>
   <v>      -0.05000000       0.05000000       0.05000000 </v>
   <v>       0.15000000       0.15000000       0.05000000 </v>
   <v>       0.25000000       0.15000000       0.05000000 </v>
   <v>       0.35000000       0.15000000       0.05000000 </v>
   <v>       0.45000000       0.15000000       0.05000000 </v>
   <v>      -0.45000000       0.15000000       0.05000000 </v>
   <v>      -0.35000000       0.15000000       0.05000000 </v>
   <v>      -0.25000000       0.15000000       0.05000000 </v>
   <v>      -0.15000000       0.15000000       0.05000000 </v>
   <v>       0.25000000       0.25000000       0.05000000 </v>
   <v>       0.35000000       0.25000000       0.05000000 </v>
   <v>       0.45000000       0.25000000       0.05000000 </v>
   <v>      -0.45000000       0.25000000       0.05000000 </v>
   <v>      -0.35000000       0.25000000       0.05000000 </v>
   <v>      -0.25000000       0.25000000       0.05000000 </v>
   <v>       0.35000000       0.35000000       0.05000000 </v>
   <v>       0.45000000       0.35000000       0.05000000 </v>
   <v>      -0.45000000       0.35000000       0.05000000 </v>
   <v>      -0.35000000       0.35000000       0.05000000 </v>
   <v>       0.45000000       0.45000000       0.05000000 </v>
   <v>      -0.45000000       0.45000000       0.05000000 </v>
   <v>       0.05000000       0.05000000       0.15000000 </v>
   <v>       0.15000000       0.05000000       0.15000000 </v>
   <v>       0.25000000       0.05000000       0.15000000 </v>
   <v>       0.35000000       0.05000000       0.15000000 </v>
   <v>       0.45000000       0.05000000       0.15000000 </v>
   <v>      -0.45000000       0.05000000       0.15000000 </v>
   <v>      -0.35000000       0.05000000       0.15000000 </v>
   <v>      -0.25000000       0.05000000       0.15000000 </v>
   <v>      -0.15000000       0.05000000       0.15000000 </v>
   <v>      -0.05000000       0.05000000       0.15000000 </v>
   <v>       0.15000000       0.15000000       0.15000000 </v>
   <v>       0.25000000       0.15000000       0.15000000 </v>
   <v>       0.35000000       0.15000000       0.15000000 </v>
   <v>       0.45000000       0.15000000       0.15000000 </v>
   <v>      -0.45000000       0.15000000       0.15000000 </v>
   <v>      -0.35000000       0.15000000       0.15000000 </v>
   <v>      -0.25000000       0.15000000       0.15000000 </v>
   <v>      -0.15000000       0.15000000       0.15000000 </v>
   <v>       0.25000000       0.25000000       0.15000000 </v>
   <v>       0.35000000       0.25000000       0.15000000 </v>
   <v>       0.45000000       0.25000000       0.15000000 </v>
   <v>      -0.45000000       0.25000000       0.15000000 </v>
   <v>      -0.35000000       0.25000000       0.15000000 </v>
   <v>      -0.25000000       0.25000000       0.15000000 </v>
   <v>       0.35000000       0.35000000       0.15000000 </v>
   <v>       0.45000000       0.35000000       0.15000000 </v>
   <v>      -0.45000000       0.35000000       0.15000000 </v>
   <v>      -0.35000000       0.35000000       0.15000000 </v>
   <v>       0.45000000       0.45000000       0.15000000 </v>
   <v>      -0.45000000       0.45000000       0.15000000 </v>
   <v>       0.05000000       0.05000000       0.25000000 </v>
   <v>       0.15000000       0.05000000       0.25000000 </v>
   <v>       0.25000000       0.05000000       0.25000000 </v>
   <v>       0.35000000       0.05000000       0.25000000 </v>
   <v>       0.45000000       0.05000000       0.25000000 </v>
   <v>      -0.45000000       0.05000000       0.25000000 </v>
   <v>      -0.35000000       0.05000000       0.25000000 </v>
   <v>      -0.25000000       0.05000000       0.25000000 </v>
   <v>      -0.15000000       0.05000000       0.25000000 </v>
   <v>      -0.05000000       0.05000000       0.25000000 </v>
   <v>       0.15000000       0.15000000       0.25000000 </v>
   <v>       0.25000000       0.15000000       0.25000000 </v>
   <v>       0.35000000       0.15000000       0.25000000 </v>
   <v>       0.45000000       0.15000000       0.25000000 </v>
   <v>      -0.45000000       0.15000000       0.25000000 </v>
   <v>      -0.35000000       0.15000000       0.25000000 </v>
   <v>      -0.25000000       0.15000000       0.25000000 </v>
   <v>      -0.15000000       0.15000000       0.25000000 </v>
   <v>       0.25000000       0.25000000       0.25000000 </v>
   <v>       0.35000000       0.25000000       0.25000000 </v>
   <v>       0.45000000       0.25000000       0.25000000 </v>
   <v>      -0.45000000       0.25000000       0.25000000 </v>
   <v>      -0.35000000       0.25000000       0.25000000 </v>
   <v>      -0.25000000       0.25000000       0.25000000 </v>
   <v>       0.35000000       0.35000000       0.25000000 </v>
   <v>       0.45000000       0.35000000       0.25000000 </v>
   <v>      -0.45000000       0.35000000       0.25000000 </v>
   <v>      -0.35000000       0.35000000       0.25000000 </v>
   <v>       0.45000000       0.45000000       0.25000000 </v>
   <v>      -0.45000000       0.45000000       0.25000000 </v>
   <v>       0.05000000       0.05000000       0.35000000 </v>
   <v>       0.15000000       0.05000000       0.35000000 </v>
   <v>       0.25000000       0.05000000       0.35000000 </v>
   <v>       0.35000000       0.05000000       0.35000000 </v>
   <v>       0.45000000       0.05000000       0.35000000 </v>
   <v>      -0.45000000       0.05000000       0.35000000 </v>
   <v>      -0.35000000       0.05000000       0.35000000 </v>
   <v>      -0.25000000       0.05000000       0.35000000 </v>
   <v>      -0.15000000       0.05000000       0.35000000 </v>
   <v>      -0.05000000       0.05000000       0.35000000 </v>
   <v>       0.15000000       0.15000000       0.35000000 </v>
   <v>       0.25000000       0.15000000       0.35000000 </v>
   <v>       0.35000000       0.15000000       0.35000000 </v>
   <v>       0.45000000       0.15000000       0.35000000 </v>
   <v>      -0.45000000       0.15000000       0.35000000 </v>
   <v>      -0.35000000       0.15000000       0.35000000 </v>
   <v>      -0.25000000       0.15000000       0.35000000 </v>
   <v>      -0.15000000       0.15000000       0.35000000 </v>
   <v>       0.25000000       0.25000000       0.35000000 </v>
   <v>       0.35000000       0.25000000       0.35000000 </v>
   <v>       0.45000000       0.25000000       0.35000000 </v>
   <v>      -0.45000000       0.25000000       0.35000000 </v>
   <v>      -0.35000000       0.25000000       0.35000000 </v>
   <v>      -0.25000000       0.25000000       0.35000000 </v>
   <v>       0.35000000       0.35000000       0.35000000 </v>
   <v>       0.45000000       0.35000000       0.35000000 </v>
   <v>      -0.45000000       0.35000000       0.35000000 </v>
   <v>      -0.35000000       0.35000000       0.35000000 </v>
   <v>       0.45000000       0.45000000       0.35000000 </v>
   <v>      -0.45000000       0.45000000       0.35000000 </v>
   <v>       0.05000000       0.05000000       0.45000000 </v>
   <v>       0.15000000       0.05000000       0.45000000 </v>
   <v>       0.25000000       0.05000000       0.45000000 </v>
   <v>       0.35000000       0.05000000       0.45000000 </v>
   <v>       0.45000000       0.05000000       0.45000000 </v>
   <v>      -0.45000000       0.05000000       0.45000000 </v>
   <v>      -0.35000000       0.05000000       0.45000000 </v>
   <v>      -0.25000000       0.05000000       0.45000000 </v>
   <v>      -0.15000000       0.05000000       0.45000000 </v>
   <v>      -0.05000000       0.05000000       0.45000000 </v>
   <v>       0.15000000       0.15000000       0.45000000 </v>
   <v>       0.25000000       0.15000000       0.45000000 </v>
   <v>       0.35000000       0.15000000       0.45000000 </v>
   <v>       0.45000000       0.15000000       0.45000000 </v>
   <v>      -0.45000000       0.15000000       0.45000000 </v>
   <v>      -0.35000000       0.15000000       0.45000000 </v>
   <v>      -0.25000000       0.15000000       0.45000000 </v>
   <v>      -0.15000000       0.15000000       0.45000000 </v>
   <v>       0.25000000       0.25000000       0.45000000 </v>
   <v>       0.35000000       0.25000000       0.45000000 </v>
   <v>       0.45000000       0.25000000       0.45000000 </v>
   <v>      -0.45000000       0.25000000       0.45000000 </v>
   <v>      -0.35000000       0.25000000       0.45000000 </v>
   <v>      -0.25000000       0.25000000       0.45000000 </v>
   <v>       0.35000000       0.35000000       0.45000000 </v>
   <v>       0.45000000       0.35000000       0.45000000 </v>
   <v>      -0.45000000       0.35000000       0.45000000 </v>
   <v>      -0.35000000       0.35000000       0.45000000 </v>
   <v>       0.45000000       0.45000000       0.45000000 </v>
   <v>      -0.45000000       0.45000000       0.45000000 </v>
  </varray>
  <varray name="weights" >
   <v>       0.00400000 </v>
   <v>       0.00800000 </v>
   <v>       0.00800000 </v>
   <v>       0.00800000 </v>
   <v>       0.00800000 </v>
   <v>       0.00800000 </v>
   <v>       0.00800000 </v>
   <v>       0.00800000 </v>
   <v>       0.00800000 </v>
   <v>       0.00400000 </v>
   <v>       0.00400000 </v>
   <v>       0.00800000 </v>
   <v>       0.00800000 </v>
   <v>       0.00800000 </v>
   <v>       0.00800000 </v>
   <v>       0.00800000 </v>
   <v>       0.00800000 </v>
   <v>       0.00400000 </v>
   <v>       0.00400000 </v>
   <v>       0.00800000 </v>
   <v>       0.00800000 </v>
   <v>       0.00800000 </v>
   <v>       0.00800000 </v>
   <v>       0.00400000 </v>
   <v>       0.00400000 </v>
   <v>       0.00800000 </v>
   <v>       0.00800000 </v>
   <v>       0.00400000 </v>
   <v>       0.00400000 </v>
   <v>       0.00400000 </v>
   <v>       0.00400000 </v>
   <v>       0.00800000 </v>
   <v>       0.00800000 </v>
   <v>       0.00800000 </v>
   <v>       0.00800000 </v>
   <v>       0.00800000 </v>
   <v>       0.00800000 </v>
   <v>       0.00800000 </v>
   <v>       0.00800000 </v>
   <v>       0.00400000 </v>
   <v>       0.00400000 </v>
   <v>       0.00800000 </v>
   <v>       0.00800000 </v>
   <v>       0.00800000 </v>
   <v>       0.00800000 </v>
   <v>       0.00800000 </v>
   <v>       0.00800000 </v>
   <v>       0.00400000 </v>
   <v>       0.00400000 </v>
   <v>       0.00800000 </v>
   <v>       0.00800000 </v>
   <v>       0.00800000 </v>
   <v>       0.00800000 </v>
   <v>       0.00400000 </v>
   <v>       0.00400000 </v>
   <v>       0.00800000 </v>
   <v>       0.00800000 </v>
   <v>       0.00400000 </v>
   <v>       0.00400000 </v>
   <v>       0.00400000 </v>
   <v>       0.00400000 </v>
   <v>       0.00800000 </v>
   <v>       0.00800000 </v>
   <v>       0.00800000 </v>
   <v>       0.00800000 </v>
   <v>       0.00800000 </v>
   <v>       0.00800000 </v>
   <v>       0.00800000 </v>
   <v>       0.00800000 </v>
   <v>       0.00400000 </v>
   <v>       0.00400000 </v>
   <v>       0.00800000 </v>
   <v>       0.00800000 </v>
   <v>       0.00800000 </v>
   <v>       0.00800000 </v>
   <v>       0.00800000 </v>
   <v>       0.00800000 </v>
   <v>       0.00400000 </v>
   <v>       0.00400000 </v>
   <v>       0.00800000 </v>
   <v>       0.00800000 </v>
   <v>       0.00800000 </v>
   <v>       0.00800000 </v>
   <v>       0.00400000 </v>
   <v>       0.00400000 </v>
   <v>       0.00800000 </v>
   <v>       0.00800000 </v>
   <v>       0.00400000 </v>
   <v>       0.00400000 </v>
   <v>       0.00400000 </v>
   <v>       0.00400000 </v>
   <v>       0.00800000 </v>
   <v>       0.00800000 </v>
   <v>       0.00800000 </v>
   <v>       0.00800000 </v>
   <v>       0.00800000 </v>
   <v>       0.00800000 </v>
   <v>       0.00800000 </v>
   <v>       0.00800000 </v>
   <v>       0.00400000 </v>
   <v>       0.00400000 </v>
   <v>       0.00800000 </v>
   <v>       0.00800000 </v>
   <v>       0.00800000 </v>
   <v>       0.00800000 </v>
   <v>       0.00800000 </v>
   <v>       0.00800000 </v>
   <v>       0.00400000 </v>
   <v>       0.00400000 </v>
   <v>       0.00800000 </v>
   <v>       0.00800000 </v>
   <v>       0.00800000 </v>
   <v>       0.00800000 </v>
   <v>       0.00400000 </v>
   <v>       0.00400000 </v>
   <v>       0.00800000 </v>
   <v>       0.00800000 </v>
   <v>       0.00400000 </v>
   <v>       0.00400000 </v>
   <v>       0.00400000 </v>
   <v>       0.00400000 </v>
   <v>       0.00800000 </v>
   <v>       0.00800000 </v>
   <v>       0.00800000 </v>
   <v>       0.00800000 </v>
   <v>       0.00800000 </v>
   <v>       0.00800000 </v>
   <v>       0.00800000 </v>
   <v>       0.00800000 </v>
   <v>       0.00400000 </v>
   <v>       0.00400000 </v>
   <v>       0.00800000 </v>
   <v>       0.00800000 </v>
   <v>       0.00800000 </v>
   <v>       0.00800000 </v>
   <v>       0.00800000 </v>
   <v>       0.00800000 </v>
   <v>       0.00400000 </v>
   <v>       0.00400000 </v>
   <v>       0.00800000 </v>
   <v>       0.00800000 </v>
   <v>       0.00800000 </v>
   <v>       0.00800000 </v>
   <v>       0.00400000 </v>
   <v>       0.00400000 </v>
   <v>       0.00800000 </v>
   <v>       0.00800000 </v>
   <v>       0.00400000 </v>
   <v>       0.00400000 </v>
   <v>       0.00400000 </v>
  </varray>
  <varray name="tetrahedronlist"  type="int" >
   <v type="int" >        4        2        2       11       32 </v>
   <v type="int" >        4        1        2        2       32 </v>
   <v type="int" >        4        1        2       31       32 </v>
   <v type="int" >        4        2       11       32       41 </v>
   <v type="int" >        4        2       32       32       41 </v>
   <v type="int" >        4        2       31       32       32 </v>
   <v type="int" >        4        3       11       12       41 </v>
   <v type="int" >        4        2        3       11       41 </v>
   <v type="int" >        4        2        3       32       41 </v>
   <v type="int" >        4        3       12       41       42 </v>
   <v type="int" >        4        3       33       41       42 </v>
   <v type="int" >        4        3       32       33       41 </v>
   <v type="int" >        4        4       12       13       42 </v>
   <v type="int" >        4        3        4       12       42 </v>
   <v type="int" >        4        3        4       33       42 </v>
   <v type="int" >        4        4       13       42       43 </v>
   <v type="int" >        4        4       34       42       43 </v>
   <v type="int" >        4        4       33       34       42 </v>
   <v type="int" >        4        5       13       14       43 </v>
   <v type="int" >        4        4        5       13       43 </v>
   <v type="int" >        4        4        5       34       43 </v>
   <v type="int" >        4        5       14       43       44 </v>
   <v type="int" >        4        5       35       43       44 </v>
   <v type="int" >        4        5       34       35       43 </v>
   <v type="int" >        4        6       14       15       44 </v>
   <v type="int" >        4        5        6       14       44 </v>
   <v type="int" >        4        5        6       35       44 </v>
   <v type="int" >        4        6       15       44       45 </v>
   <v type="int" >        4        6       36       44       45 </v>
   <v type="int" >        4        6       35       36       44 </v>
   <v type="int" >        4        7       15       16       45 </v>
   <v type="int" >        4        6        7       15       45 </v>
   <v type="int" >        4        6        7       36       45 </v>
   <v type="int" >        4        7       16       45       46 </v>
   <v type="int" >        4        7       37       45       46 </v>
   <v type="int" >        4        7       36       37       45 </v>
   <v type="int" >        4        8       16       17       46 </v>
   <v type="int" >        4        7        8       16       46 </v>
   <v type="int" >        4        7        8       37       46 </v>
   <v type="int" >        4        8       17       46       47 </v>
   <v type="int" >        4        8       38       46       47 </v>
   <v type="int" >        4        8       37       38       46 </v>
   <v type="int" >        4        9       17       18       47 </v>
   <v type="int" >        4        8        9       17       47 </v>
   <v type="int" >        4        8        9       38       47 </v>
   <v type="int" >        4        9       18       47       48 </v>
   <v type="int" >        4        9       39       47       48 </v>
   <v type="int" >        4        9       38       39       47 </v>
   <v type="int" >        4        9       10       18       48 </v>
   <v type="int" >        4        9       10       39       48 </v>
   <v type="int" >        4       10       39       40       48 </v>
   <v type="int" >        4        1        2        9       39 </v>
   <v type="int" >        4        1        9       10       39 </v>
   <v type="int" >        4        1       10       39       40 </v>
   <v type="int" >        4        1        2       32       39 </v>
   <v type="int" >        4        1       31       32       39 </v>
   <v type="int" >        4        1       31       39       40 </v>
   <v type="int" >        4        3       11       12       33 </v>
   <v type="int" >        4        2        3       11       33 </v>
   <v type="int" >        4        2       11       32       33 </v>
   <v type="int" >        4       11       12       33       42 </v>
   <v type="int" >        4       11       33       41       42 </v>
   <v type="int" >        4       11       32       33       41 </v>
   <v type="int" >        4       12       12       19       42 </v>
   <v type="int" >        4       11       12       12       42 </v>
   <v type="int" >        4       11       12       41       42 </v>
   <v type="int" >        4       12       19       42       49 </v>
   <v type="int" >        4       12       42       42       49 </v>
   <v type="int" >        4       12       41       42       42 </v>
   <v type="int" >        4       13       19       20       49 </v>
   <v type="int" >        4       12       13       19       49 </v>
   <v type="int" >        4       12       13       42       49 </v>
   <v type="int" >        4       13       20       49       50 </v>
   <v type="int" >        4       13       43       49       50 </v>
   <v type="int" >        4       13       42       43       49 </v>
   <v type="int" >        4       14       20       21       50 </v>
   <v type="int" >        4       13       14       20       50 </v>
   <v type="int" >        4       13       14       43       50 </v>
   <v type="int" >        4       14       21       50       51 </v>
   <v type="int" >        4       14       44       50       51 </v>
   <v type="int" >        4       14       43       44       50 </v>
   <v type="int" >        4       15       21       22       51 </v>
   <v type="int" >        4       14       15       21       51 </v>
   <v type="int" >        4       14       15       44       51 </v>
   <v type="int" >        4       15       22       51       52 </v>
   <v type="int" >        4       15       45       51       52 </v>
   <v type="int" >        4       15       44       45       51 </v>
   <v type="int" >        4       16       22       23       52 </v>
   <v type="int" >        4       15       16       22       52 </v>
   <v type="int" >        4       15       16       45       52 </v>
   <v type="int" >        4       16       23       52       53 </v>
   <v type="int" >        4       16       46       52       53 </v>
   <v type="int" >        4       16       45       46       52 </v>
   <v type="int" >        4       17       23       24       53 </v>
   <v type="int" >        4       16       17       23       53 </v>
   <v type="int" >        4       16       17       46       53 </v>
   <v type="int" >        4       17       24       53       54 </v>
   <v type="int" >        4       17       47       53       54 </v>
   <v type="int" >        4       17       46       47       53 </v>
   <v type="int" >        4       17       18       24       54 </v>
   <v type="int" >        4       17       18       47       54 </v>
   <v type="int" >        4       18       47       48       54 </v>
   <v type="int" >        4        2        3        8       38 </v>
   <v type="int" >        4        2        8        9       38 </v>
   <v type="int" >        4        2        9       38       39 </v>
   <v type="int" >        4        2        3       33       38 </v>
   <v type="int" >        4        2       32       33       38 </v>
   <v type="int" >        4        2       32       38       39 </v>
   <v type="int" >        4        4       12       13       34 </v>
   <v type="int" >        4        3        4       12       34 </v>
   <v type="int" >        4        3       12       33       34 </v>
   <v type="int" >        4       12       13       34       43 </v>
   <v type="int" >        4       12       34       42       43 </v>
   <v type="int" >        4       12       33       34       42 </v>
   <v type="int" >        4       13       19       20       43 </v>
   <v type="int" >        4       12       13       19       43 </v>
   <v type="int" >        4       12       19       42       43 </v>
   <v type="int" >        4       19       20       43       50 </v>
   <v type="int" >        4       19       43       49       50 </v>
   <v type="int" >        4       19       42       43       49 </v>
   <v type="int" >        4       20       20       25       50 </v>
   <v type="int" >        4       19       20       20       50 </v>
   <v type="int" >        4       19       20       49       50 </v>
   <v type="int" >        4       20       25       50       55 </v>
   <v type="int" >        4       20       50       50       55 </v>
   <v type="int" >        4       20       49       50       50 </v>
   <v type="int" >        4       21       25       26       55 </v>
   <v type="int" >        4       20       21       25       55 </v>
   <v type="int" >        4       20       21       50       55 </v>
   <v type="int" >        4       21       26       55       56 </v>
   <v type="int" >        4       21       51       55       56 </v>
   <v type="int" >        4       21       50       51       55 </v>
   <v type="int" >        4       22       26       27       56 </v>
   <v type="int" >        4       21       22       26       56 </v>
   <v type="int" >        4       21       22       51       56 </v>
   <v type="int" >        4       22       27       56       57 </v>
   <v type="int" >        4       22       52       56       57 </v>
   <v type="int" >        4       22       51       52       56 </v>
   <v type="int" >        4       23       27       28       57 </v>
   <v type="int" >        4       22       23       27       57 </v>
   <v type="int" >        4       22       23       52       57 </v>
   <v type="int" >        4       23       28       57       58 </v>
   <v type="int" >        4       23       53       57       58 </v>
   <v type="int" >        4       23       52       53       57 </v>
   <v type="int" >        4       23       24       28       58 </v>
   <v type="int" >        4       23       24       53       58 </v>
   <v type="int" >        4       24       53       54       58 </v>
   <v type="int" >        4        3        4        7       37 </v>
   <v type="int" >        4        3        7        8       37 </v>
   <v type="int" >        4        3        8       37       38 </v>
   <v type="int" >        4        3        4       34       37 </v>
   <v type="int" >        4        3       33       34       37 </v>
   <v type="int" >        4        3       33       37       38 </v>
   <v type="int" >        4        5       13       14       35 </v>
   <v type="int" >        4        4        5       13       35 </v>
   <v type="int" >        4        4       13       34       35 </v>
   <v type="int" >        4       13       14       35       44 </v>
   <v type="int" >        4       13       35       43       44 </v>
   <v type="int" >        4       13       34       35       43 </v>
   <v type="int" >        4       14       20       21       44 </v>
   <v type="int" >        4       13       14       20       44 </v>
   <v type="int" >        4       13       20       43       44 </v>
   <v type="int" >        4       20       21       44       51 </v>
   <v type="int" >        4       20       44       50       51 </v>
   <v type="int" >        4       20       43       44       50 </v>
   <v type="int" >        4       21       25       26       51 </v>
   <v type="int" >        4       20       21       25       51 </v>
   <v type="int" >        4       20       25       50       51 </v>
   <v type="int" >        4       25       26       51       56 </v>
   <v type="int" >        4       25       51       55       56 </v>
   <v type="int" >        4       25       50       51       55 </v>
   <v type="int" >        4       26       26       29       56 </v>
   <v type="int" >        4       25       26       26       56 </v>
   <v type="int" >        4       25       26       55       56 </v>
   <v type="int" >        4       26       29       56       59 </v>
   <v type="int" >        4       26       56       56       59 </v>
   <v type="int" >        4       26       55       56       56 </v>
   <v type="int" >        4       27       29       30       59 </v>
   <v type="int" >        4       26       27       29       59 </v>
   <v type="int" >        4       26       27       56       59 </v>
   <v type="int" >        4       27       30       59       60 </v>
   <v type="int" >        4       27       57       59       60 </v>
   <v type="int" >        4       27       56       57       59 </v>
   <v type="int" >        4       27       28       30       60 </v>
   <v type="int" >        4       27       28       57       60 </v>
   <v type="int" >        4       28       57       58       60 </v>
   <v type="int" >        4        4        5        6       36 </v>
   <v type="int" >        4        4        6        7       36 </v>
   <v type="int" >        4        4        7       36       37 </v>
   <v type="int" >        4        4        5       35       36 </v>
   <v type="int" >        4        4       34       35       36 </v>
   <v type="int" >        4        4       34       36       37 </v>
   <v type="int" >        4        6       14       15       36 </v>
   <v type="int" >        4        5        6       14       36 </v>
   <v type="int" >        4        5       14       35       36 </v>
   <v type="int" >        4       14       15       36       45 </v>
   <v type="int" >        4       14       36       44       45 </v>
   <v type="int" >        4       14       35       36       44 </v>
   <v type="int" >        4       15       21       22       45 </v>
   <v type="int" >        4       14       15       21       45 </v>
   <v type="int" >        4       14       21       44       45 </v>
   <v type="int" >        4       21       22       45       52 </v>
   <v type="int" >        4       21       45       51       52 </v>
   <v type="int" >        4       21       44       45       51 </v>
   <v type="int" >        4       22       26       27       52 </v>
   <v type="int" >        4       21       22       26       52 </v>
   <v type="int" >        4       21       26       51       52 </v>
   <v type="int" >        4       26       27       52       57 </v>
   <v type="int" >        4       26       52       56       57 </v>
   <v type="int" >        4       26       51       52       56 </v>
   <v type="int" >        4       27       29       30       57 </v>
   <v type="int" >        4       26       27       29       57 </v>
   <v type="int" >        4       26       29       56       57 </v>
   <v type="int" >        4       29       30       57       60 </v>
   <v type="int" >        4       29       57       59       60 </v>
   <v type="int" >        4       29       56       57       59 </v>
   <v type="int" >        4       29       30       30       60 </v>
   <v type="int" >        4       29       30       59       60 </v>
   <v type="int" >        4       30       59       60       60 </v>
   <v type="int" >        8        5        5        6       35 </v>
   <v type="int" >        8        5        6       35       36 </v>
   <v type="int" >        8        5       35       35       36 </v>
   <v type="int" >        4        7       15       16       37 </v>
   <v type="int" >        4        6        7       15       37 </v>
   <v type="int" >        4        6       15       36       37 </v>
   <v type="int" >        4       15       16       37       46 </v>
   <v type="int" >        4       15       37       45       46 </v>
   <v type="int" >        4       15       36       37       45 </v>
   <v type="int" >        4       16       22       23       46 </v>
   <v type="int" >        4       15       16       22       46 </v>
   <v type="int" >        4       15       22       45       46 </v>
   <v type="int" >        4       22       23       46       53 </v>
   <v type="int" >        4       22       46       52       53 </v>
   <v type="int" >        4       22       45       46       52 </v>
   <v type="int" >        4       23       27       28       53 </v>
   <v type="int" >        4       22       23       27       53 </v>
   <v type="int" >        4       22       27       52       53 </v>
   <v type="int" >        4       27       28       53       58 </v>
   <v type="int" >        4       27       53       57       58 </v>
   <v type="int" >        4       27       52       53       57 </v>
   <v type="int" >        4       27       28       30       58 </v>
   <v type="int" >        4       27       30       57       58 </v>
   <v type="int" >        4       30       57       58       60 </v>
   <v type="int" >        4        4        6        7       34 </v>
   <v type="int" >        4        4        5        6       34 </v>
   <v type="int" >        4        5        6       34       35 </v>
   <v type="int" >        4        6        7       34       37 </v>
   <v type="int" >        4        6       34       36       37 </v>
   <v type="int" >        4        6       34       35       36 </v>
   <v type="int" >        4        8       16       17       38 </v>
   <v type="int" >        4        7        8       16       38 </v>
   <v type="int" >        4        7       16       37       38 </v>
   <v type="int" >        4       16       17       38       47 </v>
   <v type="int" >        4       16       38       46       47 </v>
   <v type="int" >        4       16       37       38       46 </v>
   <v type="int" >        4       17       23       24       47 </v>
   <v type="int" >        4       16       17       23       47 </v>
   <v type="int" >        4       16       23       46       47 </v>
   <v type="int" >        4       23       24       47       54 </v>
   <v type="int" >        4       23       47       53       54 </v>
   <v type="int" >        4       23       46       47       53 </v>
   <v type="int" >        4       23       24       28       54 </v>
   <v type="int" >        4       23       28       53       54 </v>
   <v type="int" >        4       28       53       54       58 </v>
   <v type="int" >        4        3        7        8       33 </v>
   <v type="int" >        4        3        4        7       33 </v>
   <v type="int" >        4        4        7       33       34 </v>
   <v type="int" >        4        7        8       33       38 </v>
   <v type="int" >        4        7       33       37       38 </v>
   <v type="int" >        4        7       33       34       37 </v>
   <v type="int" >        4        9       17       18       39 </v>
   <v type="int" >        4        8        9       17       39 </v>
   <v type="int" >        4        8       17       38       39 </v>
   <v type="int" >        4       17       18       39       48 </v>
   <v type="int" >        4       17       39       47       48 </v>
   <v type="int" >        4       17       38       39       47 </v>
   <v type="int" >        4       17       18       24       48 </v>
   <v type="int" >        4       17       24       47       48 </v>
   <v type="int" >        4       24       47       48       54 </v>
   <v type="int" >        4        2        8        9       32 </v>
   <v type="int" >        4        2        3        8       32 </v>
   <v type="int" >        4        3        8       32       33 </v>
   <v type="int" >        4        8        9       32       39 </v>
   <v type="int" >        4        8       32       38       39 </v>
   <v type="int" >        4        8       32       33       38 </v>
   <v type="int" >        4        9       10       18       40 </v>
   <v type="int" >        4        9       18       39       40 </v>
   <v type="int" >        4       18       39       40       48 </v>
   <v type="int" >        4        1        9       10       31 </v>
   <v type="int" >        4        1        2        9       31 </v>
   <v type="int" >        4        2        9       31       32 </v>
   <v type="int" >        4        9       10       31       40 </v>
   <v type="int" >        4        9       31       39       40 </v>
   <v type="int" >        4        9       31       32       39 </v>
   <v type="int" >        4        1       10       10       40 </v>
   <v type="int" >        4        1       10       31       40 </v>
   <v type="int" >        4       10       31       40       40 </v>
   <v type="int" >        4       32       32       41       62 </v>
   <v type="int" >        4       31       32       32       62 </v>
   <v type="int" >        4       31       32       61       62 </v>
   <v type="int" >        4       32       41       62       71 </v>
   <v type="int" >        4       32       62       62       71 </v>
   <v type="int" >        4       32       61       62       62 </v>
   <v type="int" >        4       33       41       42       71 </v>
   <v type="int" >        4       32       33       41       71 </v>
   <v type="int" >        4       32       33       62       71 </v>
   <v type="int" >        4       33       42       71       72 </v>
   <v type="int" >        4       33       63       71       72 </v>
   <v type="int" >        4       33       62       63       71 </v>
   <v type="int" >        4       34       42       43       72 </v>
   <v type="int" >        4       33       34       42       72 </v>
   <v type="int" >        4       33       34       63       72 </v>
   <v type="int" >        4       34       43       72       73 </v>
   <v type="int" >        4       34       64       72       73 </v>
   <v type="int" >        4       34       63       64       72 </v>
   <v type="int" >        4       35       43       44       73 </v>
   <v type="int" >        4       34       35       43       73 </v>
   <v type="int" >        4       34       35       64       73 </v>
   <v type="int" >        4       35       44       73       74 </v>
   <v type="int" >        4       35       65       73       74 </v>
   <v type="int" >        4       35       64       65       73 </v>
   <v type="int" >        4       36       44       45       74 </v>
   <v type="int" >        4       35       36       44       74 </v>
   <v type="int" >        4       35       36       65       74 </v>
   <v type="int" >        4       36       45       74       75 </v>
   <v type="int" >        4       36       66       74       75 </v>
   <v type="int" >        4       36       65       66       74 </v>
   <v type="int" >        4       37       45       46       75 </v>
   <v type="int" >        4       36       37       45       75 </v>
   <v type="int" >        4       36       37       66       75 </v>
   <v type="int" >        4       37       46       75       76 </v>
   <v type="int" >        4       37       67       75       76 </v>
   <v type="int" >        4       37       66       67       75 </v>
   <v type="int" >        4       38       46       47       76 </v>
   <v type="int" >        4       37       38       46       76 </v>
   <v type="int" >        4       37       38       67       76 </v>
   <v type="int" >        4       38       47       76       77 </v>
   <v type="int" >        4       38       68       76       77 </v>
   <v type="int" >        4       38       67       68       76 </v>
   <v type="int" >        4       39       47       48       77 </v>
   <v type="int" >        4       38       39       47       77 </v>
   <v type="int" >        4       38       39       68       77 </v>
   <v type="int" >        4       39       48       77       78 </v>
   <v type="int" >        4       39       69       77       78 </v>
   <v type="int" >        4       39       68       69       77 </v>
   <v type="int" >        4       39       40       48       78 </v>
   <v type="int" >        4       39       40       69       78 </v>
   <v type="int" >        4       40       69       70       78 </v>
   <v type="int" >        4       31       32       39       69 </v>
   <v type="int" >        4       31       39       40       69 </v>
   <v type="int" >        4       31       40       69       70 </v>
   <v type="int" >        4       31       32       62       69 </v>
   <v type="int" >        4       31       61       62       69 </v>
   <v type="int" >        4       31       61       69       70 </v>
   <v type="int" >        4       33       41       42       63 </v>
   <v type="int" >        4       32       33       41       63 </v>
   <v type="int" >        4       32       41       62       63 </v>
   <v type="int" >        4       41       42       63       72 </v>
   <v type="int" >        4       41       63       71       72 </v>
   <v type="int" >        4       41       62       63       71 </v>
   <v type="int" >        4       42       42       49       72 </v>
   <v type="int" >        4       41       42       42       72 </v>
   <v type="int" >        4       41       42       71       72 </v>
   <v type="int" >        4       42       49       72       79 </v>
   <v type="int" >        4       42       72       72       79 </v>
   <v type="int" >        4       42       71       72       72 </v>
   <v type="int" >        4       43       49       50       79 </v>
   <v type="int" >        4       42       43       49       79 </v>
   <v type="int" >        4       42       43       72       79 </v>
   <v type="int" >        4       43       50       79       80 </v>
   <v type="int" >        4       43       73       79       80 </v>
   <v type="int" >        4       43       72       73       79 </v>
   <v type="int" >        4       44       50       51       80 </v>
   <v type="int" >        4       43       44       50       80 </v>
   <v type="int" >        4       43       44       73       80 </v>
   <v type="int" >        4       44       51       80       81 </v>
   <v type="int" >        4       44       74       80       81 </v>
   <v type="int" >        4       44       73       74       80 </v>
   <v type="int" >        4       45       51       52       81 </v>
   <v type="int" >        4       44       45       51       81 </v>
   <v type="int" >        4       44       45       74       81 </v>
   <v type="int" >        4       45       52       81       82 </v>
   <v type="int" >        4       45       75       81       82 </v>
   <v type="int" >        4       45       74       75       81 </v>
   <v type="int" >        4       46       52       53       82 </v>
   <v type="int" >        4       45       46       52       82 </v>
   <v type="int" >        4       45       46       75       82 </v>
   <v type="int" >        4       46       53       82       83 </v>
   <v type="int" >        4       46       76       82       83 </v>
   <v type="int" >        4       46       75       76       82 </v>
   <v type="int" >        4       47       53       54       83 </v>
   <v type="int" >        4       46       47       53       83 </v>
   <v type="int" >        4       46       47       76       83 </v>
   <v type="int" >        4       47       54       83       84 </v>
   <v type="int" >        4       47       77       83       84 </v>
   <v type="int" >        4       47       76       77       83 </v>
   <v type="int" >        4       47       48       54       84 </v>
   <v type="int" >        4       47       48       77       84 </v>
   <v type="int" >        4       48       77       78       84 </v>
   <v type="int" >        4       32       33       38       68 </v>
   <v type="int" >        4       32       38       39       68 </v>
   <v type="int" >        4       32       39       68       69 </v>
   <v type="int" >        4       32       33       63       68 </v>
   <v type="int" >        4       32       62       63       68 </v>
   <v type="int" >        4       32       62       68       69 </v>
   <v type="int" >        4       34       42       43       64 </v>
   <v type="int" >        4       33       34       42       64 </v>
   <v type="int" >        4       33       42       63       64 </v>
   <v type="int" >        4       42       43       64       73 </v>
   <v type="int" >        4       42       64       72       73 </v>
   <v type="int" >        4       42       63       64       72 </v>
   <v type="int" >        4       43       49       50       73 </v>
   <v type="int" >        4       42       43       49       73 </v>
   <v type="int" >        4       42       49       72       73 </v>
   <v type="int" >        4       49       50       73       80 </v>
   <v type="int" >        4       49       73       79       80 </v>
   <v type="int" >        4       49       72       73       79 </v>
   <v type="int" >        4       50       50       55       80 </v>
   <v type="int" >        4       49       50       50       80 </v>
   <v type="int" >        4       49       50       79       80 </v>
   <v type="int" >        4       50       55       80       85 </v>
   <v type="int" >        4       50       80       80       85 </v>
   <v type="int" >        4       50       79       80       80 </v>
   <v type="int" >        4       51       55       56       85 </v>
   <v type="int" >        4       50       51       55       85 </v>
   <v type="int" >        4       50       51       80       85 </v>
   <v type="int" >        4       51       56       85       86 </v>
   <v type="int" >        4       51       81       85       86 </v>
   <v type="int" >        4       51       80       81       85 </v>
   <v type="int" >        4       52       56       57       86 </v>
   <v type="int" >        4       51       52       56       86 </v>
   <v type="int" >        4       51       52       81       86 </v>
   <v type="int" >        4       52       57       86       87 </v>
   <v type="int" >        4       52       82       86       87 </v>
   <v type="int" >        4       52       81       82       86 </v>
   <v type="int" >        4       53       57       58       87 </v>
   <v type="int" >        4       52       53       57       87 </v>
   <v type="int" >        4       52       53       82       87 </v>
   <v type="int" >        4       53       58       87       88 </v>
   <v type="int" >        4       53       83       87       88 </v>
   <v type="int" >        4       53       82       83       87 </v>
   <v type="int" >        4       53       54       58       88 </v>
   <v type="int" >        4       53       54       83       88 </v>
   <v type="int" >        4       54       83       84       88 </v>
   <v type="int" >        4       33       34       37       67 </v>
   <v type="int" >        4       33       37       38       67 </v>
   <v type="int" >        4       33       38       67       68 </v>
   <v type="int" >        4       33       34       64       67 </v>
   <v type="int" >        4       33       63       64       67 </v>
   <v type="int" >        4       33       63       67       68 </v>
   <v type="int" >        4       35       43       44       65 </v>
   <v type="int" >        4       34       35       43       65 </v>
   <v type="int" >        4       34       43       64       65 </v>
   <v type="int" >        4       43       44       65       74 </v>
   <v type="int" >        4       43       65       73       74 </v>
   <v type="int" >        4       43       64       65       73 </v>
   <v type="int" >        4       44       50       51       74 </v>
   <v type="int" >        4       43       44       50       74 </v>
   <v type="int" >        4       43       50       73       74 </v>
   <v type="int" >        4       50       51       74       81 </v>
   <v type="int" >        4       50       74       80       81 </v>
   <v type="int" >        4       50       73       74       80 </v>
   <v type="int" >        4       51       55       56       81 </v>
   <v type="int" >        4       50       51       55       81 </v>
   <v type="int" >        4       50       55       80       81 </v>
   <v type="int" >        4       55       56       81       86 </v>
   <v type="int" >        4       55       81       85       86 </v>
   <v type="int" >        4       55       80       81       85 </v>
   <v type="int" >        4       56       56       59       86 </v>
   <v type="int" >        4       55       56       56       86 </v>
   <v type="int" >        4       55       56       85       86 </v>
   <v type="int" >        4       56       59       86       89 </v>
   <v type="int" >        4       56       86       86       89 </v>
   <v type="int" >        4       56       85       86       86 </v>
   <v type="int" >        4       57       59       60       89 </v>
   <v type="int" >        4       56       57       59       89 </v>
   <v type="int" >        4       56       57       86       89 </v>
   <v type="int" >        4       57       60       89       90 </v>
   <v type="int" >        4       57       87       89       90 </v>
   <v type="int" >        4       57       86       87       89 </v>
   <v type="int" >        4       57       58       60       90 </v>
   <v type="int" >        4       57       58       87       90 </v>
   <v type="int" >        4       58       87       88       90 </v>
   <v type="int" >        4       34       35       36       66 </v>
   <v type="int" >        4       34       36       37       66 </v>
   <v type="int" >        4       34       37       66       67 </v>
   <v type="int" >        4       34       35       65       66 </v>
   <v type="int" >        4       34       64       65       66 </v>
   <v type="int" >        4       34       64       66       67 </v>
   <v type="int" >        4       36       44       45       66 </v>
   <v type="int" >        4       35       36       44       66 </v>
   <v type="int" >        4       35       44       65       66 </v>
   <v type="int" >        4       44       45       66       75 </v>
   <v type="int" >        4       44       66       74       75 </v>
   <v type="int" >        4       44       65       66       74 </v>
   <v type="int" >        4       45       51       52       75 </v>
   <v type="int" >        4       44       45       51       75 </v>
   <v type="int" >        4       44       51       74       75 </v>
   <v type="int" >        4       51       52       75       82 </v>
   <v type="int" >        4       51       75       81       82 </v>
   <v type="int" >        4       51       74       75       81 </v>
   <v type="int" >        4       52       56       57       82 </v>
   <v type="int" >        4       51       52       56       82 </v>
   <v type="int" >        4       51       56       81       82 </v>
   <v type="int" >        4       56       57       82       87 </v>
   <v type="int" >        4       56       82       86       87 </v>
   <v type="int" >        4       56       81       82       86 </v>
   <v type="int" >        4       57       59       60       87 </v>
   <v type="int" >        4       56       57       59       87 </v>
   <v type="int" >        4       56       59       86       87 </v>
   <v type="int" >        4       59       60       87       90 </v>
   <v type="int" >        4       59       87       89       90 </v>
   <v type="int" >        4       59       86       87       89 </v>
   <v type="int" >        4       59       60       60       90 </v>
   <v type="int" >        4       59       60       89       90 </v>
   <v type="int" >        4       60       89       90       90 </v>
   <v type="int" >        8       35       35       36       65 </v>
   <v type="int" >        8       35       36       65       66 </v>
   <v type="int" >        8       35       65       65       66 </v>
   <v type="int" >        4       37       45       46       67 </v>
   <v type="int" >        4       36       37       45       67 </v>
   <v type="int" >        4       36       45       66       67 </v>
   <v type="int" >        4       45       46       67       76 </v>
   <v type="int" >        4       45       67       75       76 </v>
   <v type="int" >        4       45       66       67       75 </v>
   <v type="int" >        4       46       52       53       76 </v>
   <v type="int" >        4       45       46       52       76 </v>
   <v type="int" >        4       45       52       75       76 </v>
   <v type="int" >        4       52       53       76       83 </v>
   <v type="int" >        4       52       76       82       83 </v>
   <v type="int" >        4       52       75       76       82 </v>
   <v type="int" >        4       53       57       58       83 </v>
   <v type="int" >        4       52       53       57       83 </v>
   <v type="int" >        4       52       57       82       83 </v>
   <v type="int" >        4       57       58       83       88 </v>
   <v type="int" >        4       57       83       87       88 </v>
   <v type="int" >        4       57       82       83       87 </v>
   <v type="int" >        4       57       58       60       88 </v>
   <v type="int" >        4       57       60       87       88 </v>
   <v type="int" >        4       60       87       88       90 </v>
   <v type="int" >        4       34       36       37       64 </v>
   <v type="int" >        4       34       35       36       64 </v>
   <v type="int" >        4       35       36       64       65 </v>
   <v type="int" >        4       36       37       64       67 </v>
   <v type="int" >        4       36       64       66       67 </v>
   <v type="int" >        4       36       64       65       66 </v>
   <v type="int" >        4       38       46       47       68 </v>
   <v type="int" >        4       37       38       46       68 </v>
   <v type="int" >        4       37       46       67       68 </v>
   <v type="int" >        4       46       47       68       77 </v>
   <v type="int" >        4       46       68       76       77 </v>
   <v type="int" >        4       46       67       68       76 </v>
   <v type="int" >        4       47       53       54       77 </v>
   <v type="int" >        4       46       47       53       77 </v>
   <v type="int" >        4       46       53       76       77 </v>
   <v type="int" >        4       53       54       77       84 </v>
   <v type="int" >        4       53       77       83       84 </v>
   <v type="int" >        4       53       76       77       83 </v>
   <v type="int" >        4       53       54       58       84 </v>
   <v type="int" >        4       53       58       83       84 </v>
   <v type="int" >        4       58       83       84       88 </v>
   <v type="int" >        4       33       37       38       63 </v>
   <v type="int" >        4       33       34       37       63 </v>
   <v type="int" >        4       34       37       63       64 </v>
   <v type="int" >        4       37       38       63       68 </v>
   <v type="int" >        4       37       63       67       68 </v>
   <v type="int" >        4       37       63       64       67 </v>
   <v type="int" >        4       39       47       48       69 </v>
   <v type="int" >        4       38       39       47       69 </v>
   <v type="int" >        4       38       47       68       69 </v>
   <v type="int" >        4       47       48       69       78 </v>
   <v type="int" >        4       47       69       77       78 </v>
   <v type="int" >        4       47       68       69       77 </v>
   <v type="int" >        4       47       48       54       78 </v>
   <v type="int" >        4       47       54       77       78 </v>
   <v type="int" >        4       54       77       78       84 </v>
   <v type="int" >        4       32       38       39       62 </v>
   <v type="int" >        4       32       33       38       62 </v>
   <v type="int" >        4       33       38       62       63 </v>
   <v type="int" >        4       38       39       62       69 </v>
   <v type="int" >        4       38       62       68       69 </v>
   <v type="int" >        4       38       62       63       68 </v>
   <v type="int" >        4       39       40       48       70 </v>
   <v type="int" >        4       39       48       69       70 </v>
   <v type="int" >        4       48       69       70       78 </v>
   <v type="int" >        4       31       39       40       61 </v>
   <v type="int" >        4       31       32       39       61 </v>
   <v type="int" >        4       32       39       61       62 </v>
   <v type="int" >        4       39       40       61       70 </v>
   <v type="int" >        4       39       61       69       70 </v>
   <v type="int" >        4       39       61       62       69 </v>
   <v type="int" >        4       31       40       40       70 </v>
   <v type="int" >        4       31       40       61       70 </v>
   <v type="int" >        4       40       61       70       70 </v>
   <v type="int" >        4       62       62       71       92 </v>
   <v type="int" >        4       61       62       62       92 </v>
   <v type="int" >        4       61       62       91       92 </v>
   <v type="int" >        4       62       71       92      101 </v>
   <v type="int" >        4       62       92       92      101 </v>
   <v type="int" >        4       62       91       92       92 </v>
   <v type="int" >        4       63       71       72      101 </v>
   <v type="int" >        4       62       63       71      101 </v>
   <v type="int" >        4       62       63       92      101 </v>
   <v type="int" >        4       63       72      101      102 </v>
   <v type="int" >        4       63       93      101      102 </v>
   <v type="int" >        4       63       92       93      101 </v>
   <v type="int" >        4       64       72       73      102 </v>
   <v type="int" >        4       63       64       72      102 </v>
   <v type="int" >        4       63       64       93      102 </v>
   <v type="int" >        4       64       73      102      103 </v>
   <v type="int" >        4       64       94      102      103 </v>
   <v type="int" >        4       64       93       94      102 </v>
   <v type="int" >        4       65       73       74      103 </v>
   <v type="int" >        4       64       65       73      103 </v>
   <v type="int" >        4       64       65       94      103 </v>
   <v type="int" >        4       65       74      103      104 </v>
   <v type="int" >        4       65       95      103      104 </v>
   <v type="int" >        4       65       94       95      103 </v>
   <v type="int" >        4       66       74       75      104 </v>
   <v type="int" >        4       65       66       74      104 </v>
   <v type="int" >        4       65       66       95      104 </v>
   <v type="int" >        4       66       75      104      105 </v>
   <v type="int" >        4       66       96      104      105 </v>
   <v type="int" >        4       66       95       96      104 </v>
   <v type="int" >        4       67       75       76      105 </v>
   <v type="int" >        4       66       67       75      105 </v>
   <v type="int" >        4       66       67       96      105 </v>
   <v type="int" >        4       67       76      105      106 </v>
   <v type="int" >        4       67       97      105      106 </v>
   <v type="int" >        4       67       96       97      105 </v>
   <v type="int" >        4       68       76       77      106 </v>
   <v type="int" >        4       67       68       76      106 </v>
   <v type="int" >        4       67       68       97      106 </v>
   <v type="int" >        4       68       77      106      107 </v>
   <v type="int" >        4       68       98      106      107 </v>
   <v type="int" >        4       68       97       98      106 </v>
   <v type="int" >        4       69       77       78      107 </v>
   <v type="int" >        4       68       69       77      107 </v>
   <v type="int" >        4       68       69       98      107 </v>
   <v type="int" >        4       69       78      107      108 </v>
   <v type="int" >        4       69       99      107      108 </v>
   <v type="int" >        4       69       98       99      107 </v>
   <v type="int" >        4       69       70       78      108 </v>
   <v type="int" >        4       69       70       99      108 </v>
   <v type="int" >        4       70       99      100      108 </v>
   <v type="int" >        4       61       62       69       99 </v>
   <v type="int" >        4       61       69       70       99 </v>
   <v type="int" >        4       61       70       99      100 </v>
   <v type="int" >        4       61       62       92       99 </v>
   <v type="int" >        4       61       91       92       99 </v>
   <v type="int" >        4       61       91       99      100 </v>
   <v type="int" >        4       63       71       72       93 </v>
   <v type="int" >        4       62       63       71       93 </v>
   <v type="int" >        4       62       71       92       93 </v>
   <v type="int" >        4       71       72       93      102 </v>
   <v type="int" >        4       71       93      101      102 </v>
   <v type="int" >        4       71       92       93      101 </v>
   <v type="int" >        4       72       72       79      102 </v>
   <v type="int" >        4       71       72       72      102 </v>
   <v type="int" >        4       71       72      101      102 </v>
   <v type="int" >        4       72       79      102      109 </v>
   <v type="int" >        4       72      102      102      109 </v>
   <v type="int" >        4       72      101      102      102 </v>
   <v type="int" >        4       73       79       80      109 </v>
   <v type="int" >        4       72       73       79      109 </v>
   <v type="int" >        4       72       73      102      109 </v>
   <v type="int" >        4       73       80      109      110 </v>
   <v type="int" >        4       73      103      109      110 </v>
   <v type="int" >        4       73      102      103      109 </v>
   <v type="int" >        4       74       80       81      110 </v>
   <v type="int" >        4       73       74       80      110 </v>
   <v type="int" >        4       73       74      103      110 </v>
   <v type="int" >        4       74       81      110      111 </v>
   <v type="int" >        4       74      104      110      111 </v>
   <v type="int" >        4       74      103      104      110 </v>
   <v type="int" >        4       75       81       82      111 </v>
   <v type="int" >        4       74       75       81      111 </v>
   <v type="int" >        4       74       75      104      111 </v>
   <v type="int" >        4       75       82      111      112 </v>
   <v type="int" >        4       75      105      111      112 </v>
   <v type="int" >        4       75      104      105      111 </v>
   <v type="int" >        4       76       82       83      112 </v>
   <v type="int" >        4       75       76       82      112 </v>
   <v type="int" >        4       75       76      105      112 </v>
   <v type="int" >        4       76       83      112      113 </v>
   <v type="int" >        4       76      106      112      113 </v>
   <v type="int" >        4       76      105      106      112 </v>
   <v type="int" >        4       77       83       84      113 </v>
   <v type="int" >        4       76       77       83      113 </v>
   <v type="int" >        4       76       77      106      113 </v>
   <v type="int" >        4       77       84      113      114 </v>
   <v type="int" >        4       77      107      113      114 </v>
   <v type="int" >        4       77      106      107      113 </v>
   <v type="int" >        4       77       78       84      114 </v>
   <v type="int" >        4       77       78      107      114 </v>
   <v type="int" >        4       78      107      108      114 </v>
   <v type="int" >        4       62       63       68       98 </v>
   <v type="int" >        4       62       68       69       98 </v>
   <v type="int" >        4       62       69       98       99 </v>
   <v type="int" >        4       62       63       93       98 </v>
   <v type="int" >        4       62       92       93       98 </v>
   <v type="int" >        4       62       92       98       99 </v>
   <v type="int" >        4       64       72       73       94 </v>
   <v type="int" >        4       63       64       72       94 </v>
   <v type="int" >        4       63       72       93       94 </v>
   <v type="int" >        4       72       73       94      103 </v>
   <v type="int" >        4       72       94      102      103 </v>
   <v type="int" >        4       72       93       94      102 </v>
   <v type="int" >        4       73       79       80      103 </v>
   <v type="int" >        4       72       73       79      103 </v>
   <v type="int" >        4       72       79      102      103 </v>
   <v type="int" >        4       79       80      103      110 </v>
   <v type="int" >        4       79      103      109      110 </v>
   <v type="int" >        4       79      102      103      109 </v>
   <v type="int" >        4       80       80       85      110 </v>
   <v type="int" >        4       79       80       80      110 </v>
   <v type="int" >        4       79       80      109      110 </v>
   <v type="int" >        4       80       85      110      115 </v>
   <v type="int" >        4       80      110      110      115 </v>
   <v type="int" >        4       80      109      110      110 </v>
   <v type="int" >        4       81       85       86      115 </v>
   <v type="int" >        4       80       81       85      115 </v>
   <v type="int" >        4       80       81      110      115 </v>
   <v type="int" >        4       81       86      115      116 </v>
   <v type="int" >        4       81      111      115      116 </v>
   <v type="int" >        4       81      110      111      115 </v>
   <v type="int" >        4       82       86       87      116 </v>
   <v type="int" >        4       81       82       86      116 </v>
   <v type="int" >        4       81       82      111      116 </v>
   <v type="int" >        4       82       87      116      117 </v>
   <v type="int" >        4       82      112      116      117 </v>
   <v type="int" >        4       82      111      112      116 </v>
   <v type="int" >        4       83       87       88      117 </v>
   <v type="int" >        4       82       83       87      117 </v>
   <v type="int" >        4       82       83      112      117 </v>
   <v type="int" >        4       83       88      117      118 </v>
   <v type="int" >        4       83      113      117      118 </v>
   <v type="int" >        4       83      112      113      117 </v>
   <v type="int" >        4       83       84       88      118 </v>
   <v type="int" >        4       83       84      113      118 </v>
   <v type="int" >        4       84      113      114      118 </v>
   <v type="int" >        4       63       64       67       97 </v>
   <v type="int" >        4       63       67       68       97 </v>
   <v type="int" >        4       63       68       97       98 </v>
   <v type="int" >        4       63       64       94       97 </v>
   <v type="int" >        4       63       93       94       97 </v>
   <v type="int" >        4       63       93       97       98 </v>
   <v type="int" >        4       65       73       74       95 </v>
   <v type="int" >        4       64       65       73       95 </v>
   <v type="int" >        4       64       73       94       95 </v>
   <v type="int" >        4       73       74       95      104 </v>
   <v type="int" >        4       73       95      103      104 </v>
   <v type="int" >        4       73       94       95      103 </v>
   <v type="int" >        4       74       80       81      104 </v>
   <v type="int" >        4       73       74       80      104 </v>
   <v type="int" >        4       73       80      103      104 </v>
   <v type="int" >        4       80       81      104      111 </v>
   <v type="int" >        4       80      104      110      111 </v>
   <v type="int" >        4       80      103      104      110 </v>
   <v type="int" >        4       81       85       86      111 </v>
   <v type="int" >        4       80       81       85      111 </v>
   <v type="int" >        4       80       85      110      111 </v>
   <v type="int" >        4       85       86      111      116 </v>
   <v type="int" >        4       85      111      115      116 </v>
   <v type="int" >        4       85      110      111      115 </v>
   <v type="int" >        4       86       86       89      116 </v>
   <v type="int" >        4       85       86       86      116 </v>
   <v type="int" >        4       85       86      115      116 </v>
   <v type="int" >        4       86       89      116      119 </v>
   <v type="int" >        4       86      116      116      119 </v>
   <v type="int" >        4       86      115      116      116 </v>
   <v type="int" >        4       87       89       90      119 </v>
   <v type="int" >        4       86       87       89      119 </v>
   <v type="int" >        4       86       87      116      119 </v>
   <v type="int" >        4       87       90      119      120 </v>
   <v type="int" >        4       87      117      119      120 </v>
   <v type="int" >        4       87      116      117      119 </v>
   <v type="int" >        4       87       88       90      120 </v>
   <v type="int" >        4       87       88      117      120 </v>
   <v type="int" >        4       88      117      118      120 </v>
   <v type="int" >        4       64       65       66       96 </v>
   <v type="int" >        4       64       66       67       96 </v>
   <v type="int" >        4       64       67       96       97 </v>
   <v type="int" >        4       64       65       95       96 </v>
   <v type="int" >        4       64       94       95       96 </v>
   <v type="int" >        4       64       94       96       97 </v>
   <v type="int" >        4       66       74       75       96 </v>
   <v type="int" >        4       65       66       74       96 </v>
   <v type="int" >        4       65       74       95       96 </v>
   <v type="int" >        4       74       75       96      105 </v>
   <v type="int" >        4       74       96      104      105 </v>
   <v type="int" >        4       74       95       96      104 </v>
   <v type="int" >        4       75       81       82      105 </v>
   <v type="int" >        4       74       75       81      105 </v>
   <v type="int" >        4       74       81      104      105 </v>
   <v type="int" >        4       81       82      105      112 </v>
   <v type="int" >        4       81      105      111      112 </v>
   <v type="int" >        4       81      104      105      111 </v>
   <v type="int" >        4       82       86       87      112 </v>
   <v type="int" >        4       81       82       86      112 </v>
   <v type="int" >        4       81       86      111      112 </v>
   <v type="int" >        4       86       87      112      117 </v>
   <v type="int" >        4       86      112      116      117 </v>
   <v type="int" >        4       86      111      112      116 </v>
   <v type="int" >        4       87       89       90      117 </v>
   <v type="int" >        4       86       87       89      117 </v>
   <v type="int" >        4       86       89      116      117 </v>
   <v type="int" >        4       89       90      117      120 </v>
   <v type="int" >        4       89      117      119      120 </v>
   <v type="int" >        4       89      116      117      119 </v>
   <v type="int" >        4       89       90       90      120 </v>
   <v type="int" >        4       89       90      119      120 </v>
   <v type="int" >        4       90      119      120      120 </v>
   <v type="int" >        8       65       65       66       95 </v>
   <v type="int" >        8       65       66       95       96 </v>
   <v type="int" >        8       65       95       95       96 </v>
   <v type="int" >        4       67       75       76       97 </v>
   <v type="int" >        4       66       67       75       97 </v>
   <v type="int" >        4       66       75       96       97 </v>
   <v type="int" >        4       75       76       97      106 </v>
   <v type="int" >        4       75       97      105      106 </v>
   <v type="int" >        4       75       96       97      105 </v>
   <v type="int" >        4       76       82       83      106 </v>
   <v type="int" >        4       75       76       82      106 </v>
   <v type="int" >        4       75       82      105      106 </v>
   <v type="int" >        4       82       83      106      113 </v>
   <v type="int" >        4       82      106      112      113 </v>
   <v type="int" >        4       82      105      106      112 </v>
   <v type="int" >        4       83       87       88      113 </v>
   <v type="int" >        4       82       83       87      113 </v>
   <v type="int" >        4       82       87      112      113 </v>
   <v type="int" >        4       87       88      113      118 </v>
   <v type="int" >        4       87      113      117      118 </v>
   <v type="int" >        4       87      112      113      117 </v>
   <v type="int" >        4       87       88       90      118 </v>
   <v type="int" >        4       87       90      117      118 </v>
   <v type="int" >        4       90      117      118      120 </v>
   <v type="int" >        4       64       66       67       94 </v>
   <v type="int" >        4       64       65       66       94 </v>
   <v type="int" >        4       65       66       94       95 </v>
   <v type="int" >        4       66       67       94       97 </v>
   <v type="int" >        4       66       94       96       97 </v>
   <v type="int" >        4       66       94       95       96 </v>
   <v type="int" >        4       68       76       77       98 </v>
   <v type="int" >        4       67       68       76       98 </v>
   <v type="int" >        4       67       76       97       98 </v>
   <v type="int" >        4       76       77       98      107 </v>
   <v type="int" >        4       76       98      106      107 </v>
   <v type="int" >        4       76       97       98      106 </v>
   <v type="int" >        4       77       83       84      107 </v>
   <v type="int" >        4       76       77       83      107 </v>
   <v type="int" >        4       76       83      106      107 </v>
   <v type="int" >        4       83       84      107      114 </v>
   <v type="int" >        4       83      107      113      114 </v>
   <v type="int" >        4       83      106      107      113 </v>
   <v type="int" >        4       83       84       88      114 </v>
   <v type="int" >        4       83       88      113      114 </v>
   <v type="int" >        4       88      113      114      118 </v>
   <v type="int" >        4       63       67       68       93 </v>
   <v type="int" >        4       63       64       67       93 </v>
   <v type="int" >        4       64       67       93       94 </v>
   <v type="int" >        4       67       68       93       98 </v>
   <v type="int" >        4       67       93       97       98 </v>
   <v type="int" >        4       67       93       94       97 </v>
   <v type="int" >        4       69       77       78       99 </v>
   <v type="int" >        4       68       69       77       99 </v>
   <v type="int" >        4       68       77       98       99 </v>
   <v type="int" >        4       77       78       99      108 </v>
   <v type="int" >        4       77       99      107      108 </v>
   <v type="int" >        4       77       98       99      107 </v>
   <v type="int" >        4       77       78       84      108 </v>
   <v type="int" >        4       77       84      107      108 </v>
   <v type="int" >        4       84      107      108      114 </v>
   <v type="int" >        4       62       68       69       92 </v>
   <v type="int" >        4       62       63       68       92 </v>
   <v type="int" >        4       63       68       92       93 </v>
   <v type="int" >        4       68       69       92       99 </v>
   <v type="int" >        4       68       92       98       99 </v>
   <v type="int" >        4       68       92       93       98 </v>
   <v type="int" >        4       69       70       78      100 </v>
   <v type="int" >        4       69       78       99      100 </v>
   <v type="int" >        4       78       99      100      108 </v>
   <v type="int" >        4       61       69       70       91 </v>
   <v type="int" >        4       61       62       69       91 </v>
   <v type="int" >        4       62       69       91       92 </v>
   <v type="int" >        4       69       70       91      100 </v>
   <v type="int" >        4       69       91       99      100 </v>
   <v type="int" >        4       69       91       92       99 </v>
   <v type="int" >        4       61       70       70      100 </v>
   <v type="int" >        4       61       70       91      100 </v>
   <v type="int" >        4       70       91      100      100 </v>
   <v type="int" >        4       92       92      101      122 </v>
   <v type="int" >        4       91       92       92      122 </v>
   <v type="int" >        4       91       92      121      122 </v>
   <v type="int" >        4       92      101      122      131 </v>
   <v type="int" >        4       92      122      122      131 </v>
   <v type="int" >        4       92      121      122      122 </v>
   <v type="int" >        4       93      101      102      131 </v>
   <v type="int" >        4       92       93      101      131 </v>
   <v type="int" >        4       92       93      122      131 </v>
   <v type="int" >        4       93      102      131      132 </v>
   <v type="int" >        4       93      123      131      132 </v>
   <v type="int" >        4       93      122      123      131 </v>
   <v type="int" >        4       94      102      103      132 </v>
   <v type="int" >        4       93       94      102      132 </v>
   <v type="int" >        4       93       94      123      132 </v>
   <v type="int" >        4       94      103      132      133 </v>
   <v type="int" >        4       94      124      132      133 </v>
   <v type="int" >        4       94      123      124      132 </v>
   <v type="int" >        4       95      103      104      133 </v>
   <v type="int" >        4       94       95      103      133 </v>
   <v type="int" >        4       94       95      124      133 </v>
   <v type="int" >        4       95      104      133      134 </v>
   <v type="int" >        4       95      125      133      134 </v>
   <v type="int" >        4       95      124      125      133 </v>
   <v type="int" >        4       96      104      105      134 </v>
   <v type="int" >        4       95       96      104      134 </v>
   <v type="int" >        4       95       96      125      134 </v>
   <v type="int" >        4       96      105      134      135 </v>
   <v type="int" >        4       96      126      134      135 </v>
   <v type="int" >        4       96      125      126      134 </v>
   <v type="int" >        4       97      105      106      135 </v>
   <v type="int" >        4       96       97      105      135 </v>
   <v type="int" >        4       96       97      126      135 </v>
   <v type="int" >        4       97      106      135      136 </v>
   <v type="int" >        4       97      127      135      136 </v>
   <v type="int" >        4       97      126      127      135 </v>
   <v type="int" >        4       98      106      107      136 </v>
   <v type="int" >        4       97       98      106      136 </v>
   <v type="int" >        4       97       98      127      136 </v>
   <v type="int" >        4       98      107      136      137 </v>
   <v type="int" >        4       98      128      136      137 </v>
   <v type="int" >        4       98      127      128      136 </v>
   <v type="int" >        4       99      107      108      137 </v>
[...]
        <r>  0.0001  0.0001  0.0000  0.0000  0.0736  0.0156  0.0012  0.0113  0.1471 </r>
       </set>
       <set comment="band 18">
        <r>  0.0001  0.0001  0.0000  0.0000  0.0679  0.0163  0.0003  0.0127  0.1517 </r>
        <r>  0.0001  0.0000  0.0000  0.0000  0.0459  0.0257  0.0003  0.0033  0.1737 </r>
        <r>  0.0001  0.0001  0.0000  0.0000  0.0679  0.0163  0.0003  0.0127  0.1517 </r>
        <r>  0.0001  0.0000  0.0000  0.0000  0.0459  0.0257  0.0003  0.0033  0.1737 </r>
       </set>
       <set comment="band 19">
        <r>  0.0002  0.0001  0.0000  0.0001  0.0613  0.0176  0.0881  0.0667  0.0148 </r>
        <r>  0.0002  0.0000  0.0000  0.0001  0.0549  0.0309  0.0881  0.0534  0.0213 </r>
        <r>  0.0002  0.0001  0.0000  0.0001  0.0613  0.0176  0.0881  0.0667  0.0148 </r>
        <r>  0.0002  0.0000  0.0000  0.0001  0.0549  0.0309  0.0881  0.0534  0.0213 </r>
       </set>
       <set comment="band 20">
        <r>  0.0001  0.0000  0.0000  0.0001  0.0387  0.0298  0.0911  0.0706  0.0186 </r>
        <r>  0.0001  0.0001  0.0000  0.0001  0.0470  0.0264  0.0911  0.0740  0.0103 </r>
        <r>  0.0001  0.0000  0.0000  0.0001  0.0387  0.0298  0.0911  0.0706  0.0186 </r>
        <r>  0.0001  0.0001  0.0000  0.0001  0.0470  0.0264  0.0911  0.0740  0.0103 </r>
       </set>
       <set comment="band 21">
        <r>  0.1270  0.0041  0.0136  0.0072  0.0027  0.0010  0.0000  0.0042  0.0007 </r>
        <r>  0.1270  0.0026  0.0136  0.0087  0.0024  0.0018  0.0000  0.0034  0.0010 </r>
        <r>  0.1270  0.0041  0.0136  0.0072  0.0027  0.0010  0.0000  0.0042  0.0007 </r>
        <r>  0.1269  0.0026  0.0136  0.0088  0.0024  0.0018  0.0000  0.0034  0.0010 </r>
       </set>
       <set comment="band 22">
        <r>  0.1292  0.0013  0.0160  0.0081  0.0020  0.0025  0.0002  0.0043  0.0009 </r>
        <r>  0.1292  0.0044  0.0160  0.0050  0.0024  0.0012  0.0002  0.0056  0.0005 </r>
        <r>  0.1292  0.0013  0.0160  0.0081  0.0020  0.0025  0.0002  0.0043  0.0009 </r>
        <r>  0.1292  0.0044  0.0160  0.0050  0.0024  0.0012  0.0002  0.0056  0.0005 </r>
       </set>
       <set comment="band 23">
        <r>  0.0840  0.0093  0.0126  0.0305  0.0003  0.0006  0.0001  0.0014  0.0004 </r>
        <r>  0.0840  0.0113  0.0126  0.0284  0.0006  0.0008  0.0001  0.0013  0.0001 </r>
        <r>  0.0840  0.0093  0.0126  0.0304  0.0003  0.0006  0.0001  0.0014  0.0004 </r>
        <r>  0.0840  0.0113  0.0126  0.0284  0.0006  0.0008  0.0001  0.0013  0.0001 </r>
       </set>
       <set comment="band 24">
        <r>  0.1099  0.0135  0.0069  0.0194  0.0015  0.0010  0.0001  0.0029  0.0002 </r>
        <r>  0.1099  0.0051  0.0069  0.0278  0.0008  0.0017  0.0001  0.0022  0.0009 </r>
        <r>  0.1099  0.0135  0.0069  0.0194  0.0015  0.0010  0.0001  0.0029  0.0002 </r>
        <r>  0.1099  0.0051  0.0069  0.0278  0.0008  0.0017  0.0001  0.0022  0.0009 </r>
       </set>
       <set comment="band 25">
        <r>  0.0143  0.0358  0.0228  0.0407  0.0023  0.0046  0.0008  0.0008  0.0010 </r>
        <r>  0.0143  0.0637  0.0228  0.0127  0.0025  0.0031  0.0008  0.0023  0.0009 </r>
        <r>  0.0143  0.0358  0.0228  0.0407  0.0023  0.0046  0.0008  0.0008  0.0010 </r>
        <r>  0.0143  0.0638  0.0228  0.0127  0.0025  0.0031  0.0008  0.0023  0.0009 </r>
       </set>
       <set comment="band 26">
        <r>  0.0283  0.0552  0.0281  0.0102  0.0031  0.0047  0.0004  0.0023  0.0013 </r>
        <r>  0.0283  0.0340  0.0281  0.0314  0.0033  0.0057  0.0004  0.0014  0.0011 </r>
        <r>  0.0283  0.0552  0.0281  0.0102  0.0031  0.0047  0.0004  0.0023  0.0013 </r>
        <r>  0.0283  0.0340  0.0281  0.0314  0.0033  0.0057  0.0004  0.0014  0.0011 </r>
       </set>
       <set comment="band 27">
        <r>  0.0362  0.0532  0.0276  0.0105  0.0071  0.0037  0.0021  0.0015  0.0032 </r>
        <r>  0.0362  0.0346  0.0276  0.0291  0.0083  0.0040  0.0021  0.0012  0.0020 </r>
        <r>  0.0362  0.0532  0.0276  0.0105  0.0071  0.0037  0.0021  0.0015  0.0032 </r>
        <r>  0.0362  0.0346  0.0276  0.0291  0.0083  0.0040  0.0021  0.0012  0.0020 </r>
       </set>
       <set comment="band 28">
        <r>  0.0318  0.0400  0.0317  0.0271  0.0079  0.0057  0.0013  0.0019  0.0017 </r>
        <r>  0.0318  0.0555  0.0317  0.0116  0.0064  0.0056  0.0013  0.0021  0.0032 </r>
        <r>  0.0318  0.0400  0.0317  0.0271  0.0079  0.0057  0.0013  0.0019  0.0017 </r>
        <r>  0.0318  0.0555  0.0317  0.0116  0.0064  0.0056  0.0013  0.0021  0.0032 </r>
       </set>
       <set comment="band 29">
        <r>  0.0570  0.0152  0.1062  0.0121  0.0016  0.0003  0.0038  0.0000  0.0000 </r>
        <r>  0.0570  0.0015  0.1060  0.0258  0.0006  0.0001  0.0038  0.0002  0.0011 </r>
        <r>  0.0569  0.0151  0.1061  0.0121  0.0016  0.0003  0.0038  0.0000  0.0001 </r>
        <r>  0.0569  0.0015  0.1060  0.0258  0.0005  0.0001  0.0038  0.0002  0.0011 </r>
       </set>
       <set comment="band 30">
        <r>  0.0084  0.0328  0.0281  0.0917  0.0036  0.0036  0.0016  0.0117  0.0026 </r>
        <r>  0.0084  0.0314  0.0281  0.0933  0.0018  0.0046  0.0016  0.0107  0.0043 </r>
        <r>  0.0084  0.0329  0.0281  0.0917  0.0036  0.0036  0.0016  0.0116  0.0026 </r>
        <r>  0.0084  0.0314  0.0281  0.0931  0.0018  0.0046  0.0016  0.0107  0.0043 </r>
       </set>
       <set comment="band 31">
        <r>  0.0231  0.0066  0.0076  0.1141  0.0000  0.0115  0.0018  0.0010  0.0094 </r>
        <r>  0.0234  0.0928  0.0075  0.0296  0.0066  0.0012  0.0017  0.0112  0.0030 </r>
        <r>  0.0232  0.0076  0.0079  0.1145  0.0000  0.0114  0.0016  0.0010  0.0096 </r>
        <r>  0.0235  0.0915  0.0079  0.0309  0.0066  0.0013  0.0016  0.0110  0.0031 </r>
       </set>
       <set comment="band 32">
        <r>  0.0444  0.0285  0.0911  0.0056  0.0045  0.0010  0.0004  0.0044  0.0024 </r>
        <r>  0.0445  0.0106  0.0875  0.0284  0.0004  0.0051  0.0004  0.0001  0.0062 </r>
        <r>  0.0450  0.0329  0.0875  0.0057  0.0040  0.0011  0.0004  0.0041  0.0026 </r>
        <r>  0.0443  0.0114  0.0919  0.0230  0.0004  0.0051  0.0004  0.0001  0.0066 </r>
       </set>
      </set>
      <set comment="kpoint 150">
       <set comment="band 1">
        <r>  0.0000  0.0000  0.0000  0.0001  0.0251  0.0290  0.1150  0.0834  0.0077 </r>
        <r>  0.0000  0.0000  0.0000  0.0001  0.0070  0.0265  0.1192  0.0764  0.0022 </r>
        <r>  0.0000  0.0000  0.0000  0.0001  0.0251  0.0290  0.1150  0.0834  0.0077 </r>
        <r>  0.0000  0.0000  0.0000  0.0001  0.0070  0.0265  0.1192  0.0764  0.0022 </r>
       </set>
       <set comment="band 2">
        <r>  0.0001  0.0000  0.0000  0.0001  0.0014  0.0254  0.1313  0.0729  0.0004 </r>
        <r>  0.0000  0.0000  0.0000  0.0001  0.0099  0.0279  0.1385  0.0803  0.0030 </r>
        <r>  0.0001  0.0000  0.0000  0.0001  0.0014  0.0254  0.1313  0.0729  0.0004 </r>
        <r>  0.0000  0.0000  0.0000  0.0001  0.0099  0.0279  0.1385  0.0803  0.0030 </r>
       </set>
       <set comment="band 3">
        <r>  0.0005  0.0000  0.0004  0.0000  0.1162  0.0073  0.0302  0.0209  0.0356 </r>
        <r>  0.0005  0.0000  0.0003  0.0000  0.1945  0.0059  0.0042  0.0168  0.0595 </r>
        <r>  0.0005  0.0000  0.0004  0.0000  0.1162  0.0073  0.0302  0.0209  0.0356 </r>
        <r>  0.0005  0.0000  0.0003  0.0000  0.1945  0.0059  0.0042  0.0168  0.0595 </r>
       </set>
       <set comment="band 4">
        <r>  0.0007  0.0000  0.0002  0.0000  0.2028  0.0035  0.0005  0.0100  0.0621 </r>
        <r>  0.0009  0.0000  0.0003  0.0001  0.1357  0.0062  0.0106  0.0178  0.0415 </r>
        <r>  0.0007  0.0000  0.0002  0.0000  0.2028  0.0035  0.0005  0.0100  0.0621 </r>
        <r>  0.0009  0.0000  0.0003  0.0001  0.1357  0.0062  0.0106  0.0178  0.0415 </r>
       </set>
       <set comment="band 5">
        <r>  0.0000  0.0001  0.0000  0.0000  0.0384  0.0414  0.0000  0.0144  0.1254 </r>
        <r>  0.0000  0.0003  0.0000  0.0001  0.0625  0.0034  0.0000  0.0012  0.2043 </r>
        <r>  0.0000  0.0001  0.0000  0.0000  0.0384  0.0414  0.0000  0.0144  0.1254 </r>
        <r>  0.0000  0.0003  0.0000  0.0001  0.0625  0.0034  0.0000  0.0012  0.2043 </r>
       </set>
       <set comment="band 6">
        <r>  0.0000  0.0004  0.0000  0.0002  0.0543  0.0372  0.0000  0.0130  0.1776 </r>
        <r>  0.0000  0.0002  0.0000  0.0001  0.0220  0.0852  0.0000  0.0296  0.0718 </r>
        <r>  0.0000  0.0004  0.0000  0.0002  0.0543  0.0372  0.0000  0.0130  0.1776 </r>
        <r>  0.0000  0.0002  0.0000  0.0001  0.0220  0.0852  0.0000  0.0296  0.0718 </r>
       </set>
       <set comment="band 7">
        <r>  0.0000  0.0001  0.0000  0.0000  0.0101  0.1386  0.0000  0.0482  0.0329 </r>
        <r>  0.0000  0.0001  0.0000  0.0000  0.0185  0.1370  0.0000  0.0476  0.0606 </r>
        <r>  0.0000  0.0001  0.0000  0.0000  0.0101  0.1386  0.0000  0.0482  0.0329 </r>
        <r>  0.0000  0.0001  0.0000  0.0000  0.0185  0.1370  0.0000  0.0476  0.0606 </r>
       </set>
       <set comment="band 8">
        <r>  0.0000  0.0002  0.0000  0.0001  0.0008  0.1856  0.0000  0.0645  0.0027 </r>
        <r>  0.0000  0.0002  0.0000  0.0001  0.0004  0.1766  0.0000  0.0614  0.0014 </r>
        <r>  0.0000  0.0002  0.0000  0.0001  0.0008  0.1856  0.0000  0.0645  0.0027 </r>
        <r>  0.0000  0.0002  0.0000  0.0001  0.0004  0.1766  0.0000  0.0614  0.0014 </r>
       </set>
       <set comment="band 9">
        <r>  0.0014  0.0000  0.0001  0.0000  0.0019  0.0519  0.0405  0.1492  0.0006 </r>
        <r>  0.0009  0.0000  0.0001  0.0000  0.0201  0.0487  0.0315  0.1400  0.0061 </r>
        <r>  0.0014  0.0000  0.0001  0.0000  0.0019  0.0519  0.0405  0.1492  0.0006 </r>
        <r>  0.0009  0.0000  0.0001  0.0000  0.0201  0.0487  0.0315  0.1400  0.0061 </r>
       </set>
       <set comment="band 10">
        <r>  0.0007  0.0000  0.0001  0.0000  0.0253  0.0416  0.0647  0.1195  0.0077 </r>
        <r>  0.0009  0.0000  0.0001  0.0000  0.0059  0.0392  0.0740  0.1127  0.0018 </r>
        <r>  0.0007  0.0000  0.0001  0.0000  0.0253  0.0416  0.0647  0.1195  0.0077 </r>
        <r>  0.0009  0.0000  0.0001  0.0000  0.0059  0.0392  0.0740  0.1127  0.0018 </r>
       </set>
       <set comment="band 11">
        <r>  0.0008  0.0000  0.0001  0.0001  0.0083  0.0241  0.0567  0.0693  0.0025 </r>
        <r>  0.0021  0.0000  0.0000  0.0001  0.1294  0.0005  0.1593  0.0015  0.0396 </r>
        <r>  0.0008  0.0000  0.0001  0.0001  0.0083  0.0241  0.0567  0.0693  0.0025 </r>
        <r>  0.0021  0.0000  0.0000  0.0001  0.1294  0.0005  0.1593  0.0015  0.0396 </r>
       </set>
       <set comment="band 12">
        <r>  0.0021  0.0000  0.0000  0.0001  0.1316  0.0027  0.1437  0.0079  0.0403 </r>
        <r>  0.0009  0.0000  0.0001  0.0001  0.0023  0.0298  0.0461  0.0858  0.0007 </r>
        <r>  0.0021  0.0000  0.0000  0.0001  0.1316  0.0027  0.1437  0.0079  0.0403 </r>
        <r>  0.0009  0.0000  0.0001  0.0001  0.0023  0.0298  0.0461  0.0858  0.0007 </r>
       </set>
       <set comment="band 13">
        <r>  0.0000  0.0002  0.0000  0.0001  0.0183  0.1302  0.0000  0.0453  0.0598 </r>
        <r>  0.0000  0.0001  0.0000  0.0000  0.0154  0.1306  0.0000  0.0454  0.0503 </r>
        <r>  0.0000  0.0002  0.0000  0.0001  0.0183  0.1302  0.0000  0.0453  0.0598 </r>
        <r>  0.0000  0.0001  0.0000  0.0000  0.0154  0.1306  0.0000  0.0454  0.0503 </r>
       </set>
       <set comment="band 14">
        <r>  0.0000  0.0001  0.0000  0.0000  0.0135  0.1307  0.0000  0.0455  0.0442 </r>
        <r>  0.0000  0.0002  0.0000  0.0001  0.0194  0.1325  0.0000  0.0460  0.0634 </r>
        <r>  0.0000  0.0001  0.0000  0.0000  0.0135  0.1307  0.0000  0.0455  0.0442 </r>
        <r>  0.0000  0.0002  0.0000  0.0001  0.0194  0.1325  0.0000  0.0461  0.0634 </r>
       </set>
       <set comment="band 15">
        <r>  0.0004  0.0000  0.0002  0.0000  0.0726  0.0036  0.1411  0.0103  0.0222 </r>
        <r>  0.0002  0.0000  0.0003  0.0000  0.0593  0.0206  0.0873  0.0593  0.0181 </r>
        <r>  0.0004  0.0000  0.0002  0.0000  0.0726  0.0036  0.1411  0.0103  0.0222 </r>
        <r>  0.0002  0.0000  0.0003  0.0000  0.0593  0.0206  0.0873  0.0593  0.0181 </r>
       </set>
       <set comment="band 16">
        <r>  0.0001  0.0000  0.0003  0.0000  0.0652  0.0188  0.0816  0.0540  0.0200 </r>
        <r>  0.0002  0.0000  0.0002  0.0000  0.0793  0.0018  0.1451  0.0053  0.0243 </r>
        <r>  0.0001  0.0000  0.0003  0.0000  0.0652  0.0188  0.0816  0.0540  0.0200 </r>
        <r>  0.0002  0.0000  0.0002  0.0000  0.0793  0.0018  0.1451  0.0053  0.0243 </r>
       </set>
       <set comment="band 17">
        <r>  0.0000  0.0001  0.0000  0.0000  0.0558  0.0387  0.0000  0.0135  0.1822 </r>
        <r>  0.0000  0.0001  0.0000  0.0000  0.0401  0.0271  0.0000  0.0094  0.1310 </r>
        <r>  0.0000  0.0001  0.0000  0.0000  0.0558  0.0387  0.0000  0.0135  0.1822 </r>
        <r>  0.0000  0.0001  0.0000  0.0000  0.0401  0.0271  0.0000  0.0094  0.1310 </r>
       </set>
       <set comment="band 18">
        <r>  0.0000  0.0000  0.0000  0.0000  0.0408  0.0300  0.0000  0.0104  0.1335 </r>
        <r>  0.0000  0.0000  0.0000  0.0000  0.0537  0.0402  0.0000  0.0140  0.1755 </r>
        <r>  0.0000  0.0000  0.0000  0.0000  0.0408  0.0300  0.0000  0.0104  0.1335 </r>
        <r>  0.0000  0.0000  0.0000  0.0000  0.0537  0.0402  0.0000  0.0140  0.1755 </r>
       </set>
       <set comment="band 19">
        <r>  0.0002  0.0000  0.0000  0.0001  0.0420  0.0188  0.0906  0.0541  0.0128 </r>
        <r>  0.0002  0.0000  0.0000  0.0001  0.0801  0.0229  0.0852  0.0658  0.0245 </r>
        <r>  0.0002  0.0000  0.0000  0.0001  0.0420  0.0188  0.0906  0.0541  0.0128 </r>
        <r>  0.0002  0.0000  0.0000  0.0001  0.0801  0.0229  0.0852  0.0658  0.0245 </r>
       </set>
       <set comment="band 20">
        <r>  0.0001  0.0000  0.0000  0.0001  0.0610  0.0271  0.0937  0.0780  0.0187 </r>
        <r>  0.0001  0.0000  0.0000  0.0001  0.0300  0.0235  0.0887  0.0675  0.0092 </r>
        <r>  0.0001  0.0000  0.0000  0.0001  0.0610  0.0271  0.0937  0.0780  0.0187 </r>
        <r>  0.0001  0.0000  0.0000  0.0001  0.0300  0.0235  0.0887  0.0675  0.0092 </r>
       </set>
       <set comment="band 21">
        <r>  0.1228  0.0026  0.0136  0.0075  0.0031  0.0012  0.0001  0.0034  0.0009 </r>
        <r>  0.1310  0.0027  0.0133  0.0077  0.0018  0.0014  0.0000  0.0039  0.0006 </r>
        <r>  0.1228  0.0026  0.0136  0.0075  0.0031  0.0012  0.0001  0.0034  0.0009 </r>
        <r>  0.1310  0.0027  0.0133  0.0077  0.0018  0.0014  0.0000  0.0039  0.0006 </r>
       </set>
       <set comment="band 22">
        <r>  0.1350  0.0023  0.0170  0.0067  0.0013  0.0017  0.0003  0.0050  0.0004 </r>
        <r>  0.1215  0.0020  0.0163  0.0058  0.0031  0.0016  0.0003  0.0045  0.0009 </r>
        <r>  0.1350  0.0023  0.0170  0.0067  0.0013  0.0017  0.0003  0.0050  0.0004 </r>
        <r>  0.1215  0.0020  0.0163  0.0058  0.0031  0.0016  0.0003  0.0045  0.0009 </r>
       </set>
       <set comment="band 23">
        <r>  0.0805  0.0102  0.0077  0.0293  0.0002  0.0005  0.0000  0.0014  0.0001 </r>
        <r>  0.0838  0.0113  0.0166  0.0324  0.0008  0.0005  0.0002  0.0015  0.0003 </r>
        <r>  0.0805  0.0102  0.0077  0.0293  0.0002  0.0005  0.0000  0.0014  0.0001 </r>
        <r>  0.0838  0.0113  0.0166  0.0324  0.0008  0.0005  0.0002  0.0015  0.0003 </r>
       </set>
       <set comment="band 24">
        <r>  0.1000  0.0097  0.0133  0.0278  0.0019  0.0010  0.0001  0.0028  0.0006 </r>
        <r>  0.1041  0.0090  0.0046  0.0258  0.0004  0.0009  0.0000  0.0027  0.0001 </r>
        <r>  0.1000  0.0097  0.0133  0.0278  0.0019  0.0010  0.0001  0.0028  0.0006 </r>
        <r>  0.1041  0.0090  0.0046  0.0258  0.0004  0.0009  0.0000  0.0027  0.0001 </r>
       </set>
       <set comment="band 25">
        <r>  0.0000  0.0890  0.0000  0.0309  0.0002  0.0081  0.0000  0.0028  0.0007 </r>
        <r>  0.0000  0.0893  0.0000  0.0311  0.0002  0.0080  0.0000  0.0028  0.0007 </r>
        <r>  0.0000  0.0890  0.0000  0.0309  0.0002  0.0081  0.0000  0.0028  0.0007 </r>
        <r>  0.0000  0.0893  0.0000  0.0311  0.0002  0.0080  0.0000  0.0028  0.0007 </r>
       </set>
       <set comment="band 26">
        <r>  0.0607  0.0048  0.0468  0.0139  0.0097  0.0000  0.0030  0.0001  0.0030 </r>
        <r>  0.0567  0.0040  0.0499  0.0115  0.0102  0.0001  0.0026  0.0003  0.0031 </r>
        <r>  0.0607  0.0048  0.0468  0.0139  0.0097  0.0000  0.0030  0.0001  0.0030 </r>
        <r>  0.0567  0.0040  0.0499  0.0115  0.0102  0.0001  0.0026  0.0003  0.0031 </r>
       </set>
       <set comment="band 27">
        <r>  0.0000  0.0893  0.0000  0.0310  0.0002  0.0110  0.0000  0.0038  0.0006 </r>
        <r>  0.0000  0.0888  0.0000  0.0309  0.0002  0.0112  0.0000  0.0039  0.0006 </r>
        <r>  0.0000  0.0893  0.0000  0.0310  0.0002  0.0110  0.0000  0.0038  0.0006 </r>
        <r>  0.0000  0.0888  0.0000  0.0309  0.0002  0.0112  0.0000  0.0039  0.0006 </r>
       </set>
       <set comment="band 28">
        <r>  0.0636  0.0025  0.0594  0.0071  0.0102  0.0001  0.0014  0.0002  0.0031 </r>
        <r>  0.0660  0.0032  0.0573  0.0093  0.0098  0.0000  0.0017  0.0000  0.0030 </r>
        <r>  0.0636  0.0025  0.0594  0.0071  0.0102  0.0001  0.0014  0.0002  0.0031 </r>
        <r>  0.0660  0.0032  0.0573  0.0093  0.0098  0.0000  0.0017  0.0000  0.0030 </r>
       </set>
       <set comment="band 29">
        <r>  0.0687  0.0200  0.0887  0.0576  0.0017  0.0014  0.0025  0.0040  0.0005 </r>
        <r>  0.0331  0.0042  0.0859  0.0123  0.0001  0.0010  0.0061  0.0028  0.0000 </r>
        <r>  0.0688  0.0200  0.0886  0.0575  0.0017  0.0014  0.0025  0.0040  0.0005 </r>
        <r>  0.0331  0.0043  0.0862  0.0123  0.0001  0.0010  0.0061  0.0029  0.0000 </r>
       </set>
       <set comment="band 30">
        <r>  0.0052  0.0137  0.0580  0.0393  0.0001  0.0030  0.0026  0.0087  0.0000 </r>
        <r>  0.0314  0.0390  0.0599  0.1125  0.0030  0.0012  0.0014  0.0035  0.0009 </r>
        <r>  0.0052  0.0139  0.0576  0.0397  0.0001  0.0030  0.0026  0.0086  0.0000 </r>
        <r>  0.0315  0.0388  0.0602  0.1119  0.0030  0.0012  0.0014  0.0035  0.0009 </r>
       </set>
       <set comment="band 31">
        <r>  0.0027  0.0265  0.0721  0.0789  0.0027  0.0019  0.0103  0.0048  0.0010 </r>
        <r>  0.0655  0.0187  0.0061  0.0469  0.0016  0.0079  0.0020  0.0230  0.0006 </r>
        <r>  0.0025  0.0290  0.0675  0.0840  0.0027  0.0014  0.0103  0.0045  0.0007 </r>
        <r>  0.0652  0.0137  0.0091  0.0453  0.0019  0.0079  0.0015  0.0232  0.0005 </r>
       </set>
       <set comment="band 32">
        <r>  0.0004  0.0815  0.0003  0.0320  0.0035  0.0127  0.0000  0.0034  0.0109 </r>
        <r>  0.0000  0.0944  0.0009  0.0269  0.0044  0.0115  0.0000  0.0040  0.0139 </r>
        <r>  0.0004  0.0759  0.0003  0.0320  0.0042  0.0122  0.0000  0.0031  0.0125 </r>
        <r>  0.0000  0.1004  0.0009  0.0265  0.0041  0.0121  0.0000  0.0043  0.0121 </r>
       </set>
      </set>
     </set>
    </set>
   </array>
  </projected>
 </calculation>
 <structure name="finalpos" >
  <crystal>
   <varray name="basis" >
    <v>       4.34598822       0.01097799       0.00000000 </v>
    <v>      -2.09403400       3.80824777       0.00000000 </v>
    <v>       0.00000000       0.00000000       4.40170435 </v>
   </varray>
   <i name="volume">     72.95203551 </i>
   <varray name="rec_basis" >
    <v>       0.22977811       0.12634765       0.00000000 </v>
    <v>      -0.00066238       0.26222374       0.00000000 </v>
    <v>       0.00000000       0.00000000       0.22718473 </v>
   </varray>
  </crystal>
  <varray name="positions" >
   <v>       0.15603160       0.84396840       0.91656317 </v>
   <v>       0.34396840       0.65603160       0.41656317 </v>
   <v>       0.84396840       0.15603160       0.08343683 </v>
   <v>       0.65603160       0.34396840       0.58343683 </v>
  </varray>
 </structure>
</modeling>
