<?xml version="1.0" encoding="ISO-8859-1"?>
<modeling>
 <generator>
  <i name="program" type="string">vasp </i>
  <i name="version" type="string">5.3.3  </i>
  <i name="subversion" type="string">18Dez12 (build May 22 2013 17:09:39) complex                          parallel </i>
  <i name="platform" type="string">LinuxIFC </i>
  <i name="date" type="string">2013 12 14 </i>
  <i name="time" type="string">13:25:43 </i>
 </generator>
 <incar>
  <i type="string" name="PREC">accurate</i>
  <i type="string" name="ALGO"> Fast</i>
  <i type="int" name="ISPIN">     1</i>
  <i type="int" name="NELM">   100</i>
  <i type="int" name="IBRION">    -1</i>
  <i name="EDIFF">      0.00010000</i>
  <i type="int" name="NSW">     0</i>
  <i name="ENCUT">    500.00000000</i>
  <i type="string" name="LREAL"> Auto</i>
  <i type="int" name="ISMEAR">    -5</i>
  <i name="SIGMA">      0.20000000</i>
  <i type="logical" name="LWAVE"> F  </i>
  <i type="logical" name="LORBIT"> F  </i>
  <i type="int" name="NELM">   100</i>
 </incar>
 <kpoints>
  <generation param="Monkhorst-Pack">
   <v type="int" name="divisions">      12       12       12 </v>
   <v name="usershift">      0.00000000       0.00000000       0.00000000 </v>
   <v name="genvec1">      0.08333333       0.00000000       0.00000000 </v>
   <v name="genvec2">      0.00000000       0.08333333       0.00000000 </v>
   <v name="genvec3">      0.00000000       0.00000000       0.08333333 </v>
   <v name="shift">      0.50000000       0.50000000       0.50000000 </v>
  </generation>
  <varray name="kpointlist" >
   <v>       0.04166667       0.04166667       0.04166667 </v>
   <v>       0.12500000       0.04166667       0.04166667 </v>
   <v>       0.20833333       0.04166667       0.04166667 </v>
   <v>       0.29166667       0.04166667       0.04166667 </v>
   <v>       0.37500000       0.04166667       0.04166667 </v>
   <v>       0.45833333       0.04166667       0.04166667 </v>
   <v>       0.12500000       0.12500000       0.04166667 </v>
   <v>       0.20833333       0.12500000       0.04166667 </v>
   <v>       0.29166667       0.12500000       0.04166667 </v>
   <v>       0.37500000       0.12500000       0.04166667 </v>
   <v>       0.45833333       0.12500000       0.04166667 </v>
   <v>       0.20833333       0.20833333       0.04166667 </v>
   <v>       0.29166667       0.20833333       0.04166667 </v>
   <v>       0.37500000       0.20833333       0.04166667 </v>
   <v>       0.45833333       0.20833333       0.04166667 </v>
   <v>       0.29166667       0.29166667       0.04166667 </v>
   <v>       0.37500000       0.29166667       0.04166667 </v>
   <v>       0.45833333       0.29166667       0.04166667 </v>
   <v>       0.37500000       0.37500000       0.04166667 </v>
   <v>       0.45833333       0.37500000       0.04166667 </v>
   <v>       0.45833333       0.45833333       0.04166667 </v>
   <v>       0.12500000       0.12500000       0.12500000 </v>
   <v>       0.20833333       0.12500000       0.12500000 </v>
   <v>       0.29166667       0.12500000       0.12500000 </v>
   <v>       0.37500000       0.12500000       0.12500000 </v>
   <v>       0.45833333       0.12500000       0.12500000 </v>
   <v>       0.20833333       0.20833333       0.12500000 </v>
   <v>       0.29166667       0.20833333       0.12500000 </v>
   <v>       0.37500000       0.20833333       0.12500000 </v>
   <v>       0.45833333       0.20833333       0.12500000 </v>
   <v>       0.29166667       0.29166667       0.12500000 </v>
   <v>       0.37500000       0.29166667       0.12500000 </v>
   <v>       0.45833333       0.29166667       0.12500000 </v>
   <v>       0.37500000       0.37500000       0.12500000 </v>
   <v>       0.45833333       0.37500000       0.12500000 </v>
   <v>       0.45833333       0.45833333       0.12500000 </v>
   <v>       0.20833333       0.20833333       0.20833333 </v>
   <v>       0.29166667       0.20833333       0.20833333 </v>
   <v>       0.37500000       0.20833333       0.20833333 </v>
   <v>       0.45833333       0.20833333       0.20833333 </v>
   <v>       0.29166667       0.29166667       0.20833333 </v>
   <v>       0.37500000       0.29166667       0.20833333 </v>
   <v>       0.45833333       0.29166667       0.20833333 </v>
   <v>       0.37500000       0.37500000       0.20833333 </v>
   <v>       0.45833333       0.37500000       0.20833333 </v>
   <v>       0.45833333       0.45833333       0.20833333 </v>
   <v>       0.29166667       0.29166667       0.29166667 </v>
   <v>       0.37500000       0.29166667       0.29166667 </v>
   <v>       0.45833333       0.29166667       0.29166667 </v>
   <v>       0.37500000       0.37500000       0.29166667 </v>
   <v>       0.45833333       0.37500000       0.29166667 </v>
   <v>       0.45833333       0.45833333       0.29166667 </v>
   <v>       0.37500000       0.37500000       0.37500000 </v>
   <v>       0.45833333       0.37500000       0.37500000 </v>
   <v>       0.45833333       0.45833333       0.37500000 </v>
   <v>       0.45833333       0.45833333       0.45833333 </v>
  </varray>
  <varray name="weights" >
   <v>       0.00462963 </v>
   <v>       0.01388889 </v>
   <v>       0.01388889 </v>
   <v>       0.01388889 </v>
   <v>       0.01388889 </v>
   <v>       0.01388889 </v>
   <v>       0.01388889 </v>
   <v>       0.02777778 </v>
   <v>       0.02777778 </v>
   <v>       0.02777778 </v>
   <v>       0.02777778 </v>
   <v>       0.01388889 </v>
   <v>       0.02777778 </v>
   <v>       0.02777778 </v>
   <v>       0.02777778 </v>
   <v>       0.01388889 </v>
   <v>       0.02777778 </v>
   <v>       0.02777778 </v>
   <v>       0.01388889 </v>
   <v>       0.02777778 </v>
   <v>       0.01388889 </v>
   <v>       0.00462963 </v>
   <v>       0.01388889 </v>
   <v>       0.01388889 </v>
   <v>       0.01388889 </v>
   <v>       0.01388889 </v>
   <v>       0.01388889 </v>
   <v>       0.02777778 </v>
   <v>       0.02777778 </v>
   <v>       0.02777778 </v>
   <v>       0.01388889 </v>
   <v>       0.02777778 </v>
   <v>       0.02777778 </v>
   <v>       0.01388889 </v>
   <v>       0.02777778 </v>
   <v>       0.01388889 </v>
   <v>       0.00462963 </v>
   <v>       0.01388889 </v>
   <v>       0.01388889 </v>
   <v>       0.01388889 </v>
   <v>       0.01388889 </v>
   <v>       0.02777778 </v>
   <v>       0.02777778 </v>
   <v>       0.01388889 </v>
   <v>       0.02777778 </v>
   <v>       0.01388889 </v>
   <v>       0.00462963 </v>
   <v>       0.01388889 </v>
   <v>       0.01388889 </v>
   <v>       0.01388889 </v>
   <v>       0.02777778 </v>
   <v>       0.01388889 </v>
   <v>       0.00462963 </v>
   <v>       0.01388889 </v>
   <v>       0.01388889 </v>
   <v>       0.00462963 </v>
  </varray>
  <varray name="tetrahedronlist"  type="int" >
   <v type="int" >       24        1        2        2        7 </v>
   <v type="int" >       18        2        2        7        7 </v>
   <v type="int" >       12        2        7        7       22 </v>
   <v type="int" >       12        2        3        7        8 </v>
   <v type="int" >       24        2        7        7        8 </v>
   <v type="int" >       12        7        7        8       22 </v>
   <v type="int" >       24        3        7        8        8 </v>
   <v type="int" >       24        7        8        8       23 </v>
   <v type="int" >       24        7        8       22       23 </v>
   <v type="int" >       12        3        4        8        9 </v>
   <v type="int" >       24        3        8        8        9 </v>
   <v type="int" >       12        8        8        9       23 </v>
   <v type="int" >       24        4        8        9        9 </v>
   <v type="int" >       12        8        9        9       24 </v>
   <v type="int" >       12        8        9       23       24 </v>
   <v type="int" >       12        4        5        9       10 </v>
   <v type="int" >       24        4        9        9       10 </v>
   <v type="int" >       12        9        9       10       24 </v>
   <v type="int" >       24        5        9       10       10 </v>
   <v type="int" >       12        9       10       10       25 </v>
   <v type="int" >       12        9       10       24       25 </v>
   <v type="int" >       12        5        6       10       11 </v>
   <v type="int" >       24        5       10       10       11 </v>
   <v type="int" >       12       10       10       11       25 </v>
   <v type="int" >       24        6       10       11       11 </v>
   <v type="int" >       12       10       11       11       26 </v>
   <v type="int" >       12       10       11       25       26 </v>
   <v type="int" >       30        6        6       11       11 </v>
   <v type="int" >       36        6       11       11       11 </v>
   <v type="int" >       12       11       11       11       26 </v>
   <v type="int" >        6       11       11       26       26 </v>
   <v type="int" >       18        1        1        2        2 </v>
   <v type="int" >       24        1        2        2        2 </v>
   <v type="int" >       12        2        2        2        7 </v>
   <v type="int" >       12        7        8       12       22 </v>
   <v type="int" >       12        8       12       22       23 </v>
   <v type="int" >       12       12       22       23       27 </v>
   <v type="int" >       12        8        9       13       23 </v>
   <v type="int" >       12        8       12       13       23 </v>
   <v type="int" >       12       12       13       23       27 </v>
   <v type="int" >       12        9       13       23       24 </v>
   <v type="int" >       12       13       23       24       28 </v>
   <v type="int" >       12       13       23       27       28 </v>
   <v type="int" >       12        9       10       14       24 </v>
   <v type="int" >       12        9       13       14       24 </v>
   <v type="int" >       12       13       14       24       28 </v>
   <v type="int" >       12       10       14       24       25 </v>
   <v type="int" >       12       14       24       25       29 </v>
   <v type="int" >       12       14       24       28       29 </v>
   <v type="int" >       12       10       11       15       25 </v>
   <v type="int" >       12       10       14       15       25 </v>
   <v type="int" >       12       14       15       25       29 </v>
   <v type="int" >       12       11       15       25       26 </v>
   <v type="int" >       12       15       25       26       30 </v>
   <v type="int" >       12       15       25       29       30 </v>
   <v type="int" >       12       11       11       15       26 </v>
   <v type="int" >       12       11       15       15       26 </v>
   <v type="int" >       12       15       15       26       30 </v>
   <v type="int" >       12       11       15       26       26 </v>
   <v type="int" >       12       15       26       26       30 </v>
   <v type="int" >       12       15       26       30       30 </v>
   <v type="int" >       12       10       11       14       26 </v>
   <v type="int" >       12       11       14       15       26 </v>
   <v type="int" >       12       14       15       26       30 </v>
   <v type="int" >       12       10       14       25       26 </v>
   <v type="int" >       12       14       25       26       29 </v>
   <v type="int" >       12       14       26       29       30 </v>
   <v type="int" >       12        9       10       13       25 </v>
   <v type="int" >       12       10       13       14       25 </v>
   <v type="int" >       12       13       14       25       29 </v>
   <v type="int" >       12        9       13       24       25 </v>
   <v type="int" >       12       13       24       25       28 </v>
   <v type="int" >       12       13       25       28       29 </v>
   <v type="int" >       12        8        9       12       24 </v>
   <v type="int" >       12        9       12       13       24 </v>
   <v type="int" >       12       12       13       24       28 </v>
   <v type="int" >       12        8       12       23       24 </v>
   <v type="int" >       12       12       23       24       27 </v>
   <v type="int" >       12       12       24       27       28 </v>
   <v type="int" >       12        8        8       12       23 </v>
   <v type="int" >       12        8       12       23       27 </v>
   <v type="int" >       12        8       22       23       23 </v>
   <v type="int" >       12        8       23       23       27 </v>
   <v type="int" >       12        2        3        7       22 </v>
   <v type="int" >       12        3        7        8       22 </v>
   <v type="int" >       12        3        8       22       23 </v>
   <v type="int" >       12        2        2        3        7 </v>
   <v type="int" >       12        2        3        3        7 </v>
   <v type="int" >       12        3        3        7        8 </v>
   <v type="int" >       12        2        3        7        7 </v>
   <v type="int" >       12        3        7        7        8 </v>
   <v type="int" >       12       12       13       16       27 </v>
   <v type="int" >       12       13       16       27       28 </v>
   <v type="int" >       12       16       27       28       31 </v>
   <v type="int" >       12       13       14       17       28 </v>
   <v type="int" >       12       13       16       17       28 </v>
   <v type="int" >       12       16       17       28       31 </v>
   <v type="int" >       12       14       17       28       29 </v>
   <v type="int" >       12       17       28       29       32 </v>
   <v type="int" >       12       17       28       31       32 </v>
   <v type="int" >       12       14       15       18       29 </v>
   <v type="int" >       12       14       17       18       29 </v>
   <v type="int" >       12       17       18       29       32 </v>
   <v type="int" >       12       15       18       29       30 </v>
   <v type="int" >       12       18       29       30       33 </v>
   <v type="int" >       12       18       29       32       33 </v>
   <v type="int" >       12       15       15       18       30 </v>
   <v type="int" >       12       15       18       18       30 </v>
   <v type="int" >       12       18       18       30       33 </v>
   <v type="int" >       12       15       18       30       30 </v>
   <v type="int" >       12       18       30       30       33 </v>
   <v type="int" >       12       18       30       33       33 </v>
   <v type="int" >       12       14       15       17       30 </v>
   <v type="int" >       12       15       17       18       30 </v>
   <v type="int" >       12       17       18       30       33 </v>
   <v type="int" >       12       14       17       29       30 </v>
   <v type="int" >       12       17       29       30       32 </v>
   <v type="int" >       12       17       30       32       33 </v>
   <v type="int" >       12       13       14       16       29 </v>
   <v type="int" >       12       14       16       17       29 </v>
   <v type="int" >       12       16       17       29       32 </v>
   <v type="int" >       12       13       16       28       29 </v>
   <v type="int" >       12       16       28       29       31 </v>
   <v type="int" >       12       16       29       31       32 </v>
   <v type="int" >       12       12       13       13       28 </v>
   <v type="int" >       12       13       13       16       28 </v>
   <v type="int" >       12       13       16       28       31 </v>
   <v type="int" >       12       12       13       27       28 </v>
   <v type="int" >       12       13       27       28       28 </v>
   <v type="int" >       12       13       28       28       31 </v>
   <v type="int" >       12        8        9       12       27 </v>
   <v type="int" >       12        9       12       13       27 </v>
   <v type="int" >       12        9       13       27       28 </v>
   <v type="int" >       12        8        9       23       27 </v>
   <v type="int" >       12        9       23       24       27 </v>
   <v type="int" >       12        9       24       27       28 </v>
   <v type="int" >       12        3        4        8       23 </v>
   <v type="int" >       12        4        8        9       23 </v>
   <v type="int" >       12        4        9       23       24 </v>
   <v type="int" >       12        3        3        4        8 </v>
   <v type="int" >       12        3        4        4        8 </v>
   <v type="int" >       12        4        4        8        9 </v>
   <v type="int" >       12        3        4        8        8 </v>
   <v type="int" >       12        4        8        8        9 </v>
   <v type="int" >       12       16       17       19       31 </v>
   <v type="int" >       12       17       19       31       32 </v>
   <v type="int" >       12       19       31       32       34 </v>
   <v type="int" >       12       17       18       20       32 </v>
   <v type="int" >       12       17       19       20       32 </v>
   <v type="int" >       12       19       20       32       34 </v>
   <v type="int" >       12       18       20       32       33 </v>
   <v type="int" >       12       20       32       33       35 </v>
   <v type="int" >       12       20       32       34       35 </v>
   <v type="int" >       12       18       18       20       33 </v>
   <v type="int" >       12       18       20       20       33 </v>
   <v type="int" >       12       20       20       33       35 </v>
   <v type="int" >       12       18       20       33       33 </v>
   <v type="int" >       12       20       33       33       35 </v>
   <v type="int" >       12       20       33       35       35 </v>
   <v type="int" >       12       17       18       19       33 </v>
   <v type="int" >       12       18       19       20       33 </v>
   <v type="int" >       12       19       20       33       35 </v>
   <v type="int" >       12       17       19       32       33 </v>
   <v type="int" >       12       19       32       33       34 </v>
   <v type="int" >       12       19       33       34       35 </v>
   <v type="int" >       12       16       17       17       32 </v>
   <v type="int" >       12       17       17       19       32 </v>
   <v type="int" >       12       17       19       32       34 </v>
   <v type="int" >       12       16       17       31       32 </v>
   <v type="int" >       12       17       31       32       32 </v>
   <v type="int" >       12       17       32       32       34 </v>
   <v type="int" >       12       13       14       16       31 </v>
   <v type="int" >       12       14       16       17       31 </v>
   <v type="int" >       12       14       17       31       32 </v>
   <v type="int" >       12       13       14       28       31 </v>
   <v type="int" >       12       14       28       29       31 </v>
   <v type="int" >       12       14       29       31       32 </v>
   <v type="int" >       12        9       10       13       28 </v>
   <v type="int" >       12       10       13       14       28 </v>
   <v type="int" >       12       10       14       28       29 </v>
   <v type="int" >       12        9       10       24       28 </v>
   <v type="int" >       12       10       24       25       28 </v>
   <v type="int" >       12       10       25       28       29 </v>
   <v type="int" >       12        4        5        9       24 </v>
   <v type="int" >       12        5        9       10       24 </v>
   <v type="int" >       12        5       10       24       25 </v>
   <v type="int" >       12        4        4        5        9 </v>
   <v type="int" >       12        4        5        5        9 </v>
   <v type="int" >       12        5        5        9       10 </v>
   <v type="int" >       12        4        5        9        9 </v>
   <v type="int" >       12        5        9        9       10 </v>
   <v type="int" >       12       19       20       21       34 </v>
   <v type="int" >       12       20       21       34       35 </v>
   <v type="int" >       12       21       34       35       36 </v>
   <v type="int" >       24       20       20       21       35 </v>
   <v type="int" >       12       20       21       21       35 </v>
   <v type="int" >       12       21       21       35       36 </v>
   <v type="int" >       12       20       21       35       35 </v>
   <v type="int" >       12       21       35       35       36 </v>
   <v type="int" >       12       21       35       36       36 </v>
   <v type="int" >       12       19       20       20       35 </v>
   <v type="int" >       12       20       21       35       36 </v>
   <v type="int" >       12       19       20       34       35 </v>
   <v type="int" >       12       20       34       35       35 </v>
   <v type="int" >       24       20       35       35       36 </v>
   <v type="int" >       12       17       18       19       34 </v>
   <v type="int" >       12       18       19       20       34 </v>
   <v type="int" >       12       18       20       34       35 </v>
   <v type="int" >       12       17       18       32       34 </v>
   <v type="int" >       12       18       32       33       34 </v>
   <v type="int" >       12       18       33       34       35 </v>
   <v type="int" >       12       14       15       17       32 </v>
   <v type="int" >       12       15       17       18       32 </v>
   <v type="int" >       12       15       18       32       33 </v>
   <v type="int" >       12       14       15       29       32 </v>
   <v type="int" >       12       15       29       30       32 </v>
   <v type="int" >       12       15       30       32       33 </v>
   <v type="int" >       12       10       11       14       29 </v>
   <v type="int" >       12       11       14       15       29 </v>
   <v type="int" >       12       11       15       29       30 </v>
   <v type="int" >       12       10       11       25       29 </v>
   <v type="int" >       12       11       25       26       29 </v>
   <v type="int" >       12       11       26       29       30 </v>
   <v type="int" >       12        5        6       10       25 </v>
   <v type="int" >       12        6       10       11       25 </v>
   <v type="int" >       12        6       11       25       26 </v>
   <v type="int" >       12        5        5        6       10 </v>
   <v type="int" >       12        5        6        6       10 </v>
   <v type="int" >       12        6        6       10       11 </v>
   <v type="int" >       12        5        6       10       10 </v>
   <v type="int" >       12        6       10       10       11 </v>
   <v type="int" >       12       21       21       21       36 </v>
   <v type="int" >       12       21       21       36       36 </v>
   <v type="int" >       12       21       36       36       36 </v>
   <v type="int" >       12       20       20       21       36 </v>
   <v type="int" >       12       20       21       21       36 </v>
   <v type="int" >       12       20       21       36       36 </v>
   <v type="int" >       12       20       20       35       36 </v>
   <v type="int" >       12       20       35       36       36 </v>
   <v type="int" >       12       18       18       20       35 </v>
   <v type="int" >       12       18       20       20       35 </v>
   <v type="int" >       12       18       20       35       35 </v>
   <v type="int" >       12       18       18       33       35 </v>
   <v type="int" >       12       18       33       33       35 </v>
   <v type="int" >       12       18       33       35       35 </v>
   <v type="int" >       12       15       15       18       33 </v>
   <v type="int" >       12       15       18       18       33 </v>
   <v type="int" >       12       15       18       33       33 </v>
   <v type="int" >       12       15       15       30       33 </v>
   <v type="int" >       12       15       30       30       33 </v>
   <v type="int" >       12       15       30       33       33 </v>
   <v type="int" >       12       11       11       15       30 </v>
   <v type="int" >       12       11       15       15       30 </v>
   <v type="int" >       12       11       15       30       30 </v>
   <v type="int" >       12       11       11       26       30 </v>
   <v type="int" >       12       11       26       26       30 </v>
   <v type="int" >       12       11       26       30       30 </v>
   <v type="int" >       12        6        6       11       26 </v>
   <v type="int" >       12        6       11       11       26 </v>
   <v type="int" >       12        6       11       26       26 </v>
   <v type="int" >       24        6        6        6       11 </v>
   <v type="int" >       12       19       20       21       36 </v>
   <v type="int" >       12       19       20       35       36 </v>
   <v type="int" >       12       19       34       35       36 </v>
   <v type="int" >       12       17       18       20       35 </v>
   <v type="int" >       12       17       19       20       35 </v>
   <v type="int" >       12       17       19       34       35 </v>
   <v type="int" >       12       17       18       33       35 </v>
   <v type="int" >       12       17       32       33       35 </v>
   <v type="int" >       12       17       32       34       35 </v>
   <v type="int" >       12       14       15       18       33 </v>
   <v type="int" >       12       14       17       18       33 </v>
   <v type="int" >       12       14       17       32       33 </v>
   <v type="int" >       12       14       15       30       33 </v>
   <v type="int" >       12       14       29       30       33 </v>
   <v type="int" >       12       14       29       32       33 </v>
   <v type="int" >       12       10       11       15       30 </v>
   <v type="int" >       12       10       14       15       30 </v>
   <v type="int" >       12       10       14       29       30 </v>
   <v type="int" >       12       10       11       26       30 </v>
   <v type="int" >       12       10       25       26       30 </v>
   <v type="int" >       12       10       25       29       30 </v>
   <v type="int" >       12        5        6       11       26 </v>
   <v type="int" >       12        5       10       11       26 </v>
   <v type="int" >       12        5       10       25       26 </v>
   <v type="int" >       12        5        6        6       11 </v>
   <v type="int" >       12        5        5        6       11 </v>
   <v type="int" >       12        5        5       10       11 </v>
   <v type="int" >       12        5        6       11       11 </v>
   <v type="int" >       12        5       10       11       11 </v>
   <v type="int" >       12       16       17       19       34 </v>
   <v type="int" >       12       16       17       32       34 </v>
   <v type="int" >       12       16       31       32       34 </v>
   <v type="int" >       12       13       14       17       32 </v>
   <v type="int" >       12       13       16       17       32 </v>
   <v type="int" >       12       13       16       31       32 </v>
   <v type="int" >       12       13       14       29       32 </v>
   <v type="int" >       12       13       28       29       32 </v>
   <v type="int" >       12       13       28       31       32 </v>
   <v type="int" >       12        9       10       14       29 </v>
   <v type="int" >       12        9       13       14       29 </v>
   <v type="int" >       12        9       13       28       29 </v>
   <v type="int" >       12        9       10       25       29 </v>
   <v type="int" >       12        9       24       25       29 </v>
   <v type="int" >       12        9       24       28       29 </v>
   <v type="int" >       12        4        5       10       25 </v>
   <v type="int" >       12        4        9       10       25 </v>
   <v type="int" >       12        4        9       24       25 </v>
   <v type="int" >       12        4        5        5       10 </v>
   <v type="int" >       12        4        4        5       10 </v>
   <v type="int" >       12        4        4        9       10 </v>
   <v type="int" >       12        4        5       10       10 </v>
   <v type="int" >       12        4        9       10       10 </v>
   <v type="int" >       12       12       13       16       31 </v>
   <v type="int" >       12       12       13       28       31 </v>
   <v type="int" >       12       12       27       28       31 </v>
   <v type="int" >       12        8        9       13       28 </v>
   <v type="int" >       12        8       12       13       28 </v>
   <v type="int" >       12        8       12       27       28 </v>
   <v type="int" >       12        8        9       24       28 </v>
   <v type="int" >       12        8       23       24       28 </v>
   <v type="int" >       12        8       23       27       28 </v>
   <v type="int" >       12        3        4        9       24 </v>
   <v type="int" >       12        3        8        9       24 </v>
   <v type="int" >       12        3        8       23       24 </v>
   <v type="int" >       12        3        4        4        9 </v>
   <v type="int" >       12        3        3        4        9 </v>
   <v type="int" >       12        3        3        8        9 </v>
   <v type="int" >       12        3        4        9        9 </v>
   <v type="int" >       12        3        8        9        9 </v>
   <v type="int" >       12        7        8       12       27 </v>
   <v type="int" >       12        7        8       23       27 </v>
   <v type="int" >       12        7       22       23       27 </v>
   <v type="int" >       12        2        3        8       23 </v>
   <v type="int" >       12        2        7        8       23 </v>
   <v type="int" >       12        2        7       22       23 </v>
   <v type="int" >       12        2        3        3        8 </v>
   <v type="int" >       12        2        2        3        8 </v>
   <v type="int" >       12        2        2        7        8 </v>
   <v type="int" >       12        2        3        8        8 </v>
   <v type="int" >       12        2        7        8        8 </v>
   <v type="int" >       12        1        2        7       22 </v>
   <v type="int" >       12        1        1        2        7 </v>
   <v type="int" >       12        1        2        7        7 </v>
   <v type="int" >       12        1        1        1        2 </v>
   <v type="int" >       12       22       23       23       27 </v>
   <v type="int" >       12       23       23       27       27 </v>
   <v type="int" >       12       23       27       27       37 </v>
   <v type="int" >       12       23       24       27       28 </v>
   <v type="int" >       12       23       27       27       28 </v>
   <v type="int" >       12       27       27       28       37 </v>
   <v type="int" >       12       24       27       28       28 </v>
   <v type="int" >       24       27       28       28       38 </v>
   <v type="int" >       24       27       28       37       38 </v>
   <v type="int" >       12       24       25       28       29 </v>
   <v type="int" >       12       24       28       28       29 </v>
   <v type="int" >       12       28       28       29       38 </v>
   <v type="int" >       12       25       28       29       29 </v>
   <v type="int" >       12       28       29       29       39 </v>
   <v type="int" >       12       28       29       38       39 </v>
   <v type="int" >       12       25       26       29       30 </v>
   <v type="int" >       12       25       29       29       30 </v>
   <v type="int" >       12       29       29       30       39 </v>
   <v type="int" >       12       26       29       30       30 </v>
   <v type="int" >       12       29       30       30       40 </v>
   <v type="int" >       12       29       30       39       40 </v>
   <v type="int" >        6       26       26       30       30 </v>
   <v type="int" >       12       26       30       30       30 </v>
   <v type="int" >       12       30       30       30       40 </v>
   <v type="int" >        6       30       30       40       40 </v>
   <v type="int" >        6        7        7        8        8 </v>
   <v type="int" >       12        7        8        8        8 </v>
   <v type="int" >       12        8        8        8       12 </v>
   <v type="int" >        6        8        8       12       12 </v>
   <v type="int" >       12       27       28       31       37 </v>
   <v type="int" >       12       28       31       37       38 </v>
   <v type="int" >       12       31       37       38       41 </v>
   <v type="int" >       12       28       29       32       38 </v>
   <v type="int" >       12       28       31       32       38 </v>
   <v type="int" >       12       31       32       38       41 </v>
   <v type="int" >       12       29       32       38       39 </v>
   <v type="int" >       12       32       38       39       42 </v>
   <v type="int" >       12       32       38       41       42 </v>
   <v type="int" >       12       29       30       33       39 </v>
   <v type="int" >       12       29       32       33       39 </v>
   <v type="int" >       12       32       33       39       42 </v>
   <v type="int" >       12       30       33       39       40 </v>
   <v type="int" >       12       33       39       40       43 </v>
   <v type="int" >       12       33       39       42       43 </v>
   <v type="int" >       12       30       30       33       40 </v>
   <v type="int" >       12       30       33       33       40 </v>
   <v type="int" >       12       33       33       40       43 </v>
   <v type="int" >       12       30       33       40       40 </v>
   <v type="int" >       12       33       40       40       43 </v>
   <v type="int" >       12       33       40       43       43 </v>
   <v type="int" >       12       29       30       32       40 </v>
   <v type="int" >       12       30       32       33       40 </v>
   <v type="int" >       12       32       33       40       43 </v>
   <v type="int" >       12       29       32       39       40 </v>
   <v type="int" >       12       32       39       40       42 </v>
   <v type="int" >       12       32       40       42       43 </v>
   <v type="int" >       12       28       29       31       39 </v>
   <v type="int" >       12       29       31       32       39 </v>
   <v type="int" >       12       31       32       39       42 </v>
   <v type="int" >       12       28       31       38       39 </v>
   <v type="int" >       12       31       38       39       41 </v>
   <v type="int" >       12       31       39       41       42 </v>
   <v type="int" >       12       28       28       31       38 </v>
   <v type="int" >       12       28       31       38       41 </v>
   <v type="int" >       12       28       37       38       38 </v>
   <v type="int" >       12       28       38       38       41 </v>
   <v type="int" >       12       23       24       27       37 </v>
   <v type="int" >       12       24       27       28       37 </v>
   <v type="int" >       12       24       28       37       38 </v>
   <v type="int" >       12        8        8        9       12 </v>
   <v type="int" >       12        8        9        9       12 </v>
   <v type="int" >       12        9        9       12       13 </v>
   <v type="int" >       12        8        9       12       12 </v>
   <v type="int" >       12        9       12       12       13 </v>
   <v type="int" >       12        9       12       13       13 </v>
   <v type="int" >       12       31       32       34       41 </v>
   <v type="int" >       12       32       34       41       42 </v>
   <v type="int" >       12       34       41       42       44 </v>
   <v type="int" >       12       32       33       35       42 </v>
   <v type="int" >       12       32       34       35       42 </v>
   <v type="int" >       12       34       35       42       44 </v>
   <v type="int" >       12       33       35       42       43 </v>
   <v type="int" >       12       35       42       43       45 </v>
   <v type="int" >       12       35       42       44       45 </v>
   <v type="int" >       12       33       33       35       43 </v>
   <v type="int" >       12       33       35       35       43 </v>
   <v type="int" >       12       35       35       43       45 </v>
   <v type="int" >       12       33       35       43       43 </v>
   <v type="int" >       12       35       43       43       45 </v>
   <v type="int" >       12       35       43       45       45 </v>
   <v type="int" >       12       32       33       34       43 </v>
   <v type="int" >       12       33       34       35       43 </v>
   <v type="int" >       12       34       35       43       45 </v>
   <v type="int" >       12       32       34       42       43 </v>
   <v type="int" >       12       34       42       43       44 </v>
   <v type="int" >       12       34       43       44       45 </v>
   <v type="int" >       12       31       32       32       42 </v>
   <v type="int" >       12       32       32       34       42 </v>
   <v type="int" >       12       32       34       42       44 </v>
   <v type="int" >       12       31       32       41       42 </v>
   <v type="int" >       12       32       41       42       42 </v>
   <v type="int" >       12       32       42       42       44 </v>
   <v type="int" >       12       28       29       31       41 </v>
   <v type="int" >       12       29       31       32       41 </v>
   <v type="int" >       12       29       32       41       42 </v>
   <v type="int" >       12       28       29       38       41 </v>
   <v type="int" >       12       29       38       39       41 </v>
   <v type="int" >       12       29       39       41       42 </v>
   <v type="int" >       12       24       25       28       38 </v>
   <v type="int" >       12       25       28       29       38 </v>
   <v type="int" >       12       25       29       38       39 </v>
   <v type="int" >       12        9        9       10       13 </v>
   <v type="int" >       12        9       10       10       13 </v>
   <v type="int" >       12       10       10       13       14 </v>
   <v type="int" >       12        9       10       13       13 </v>
   <v type="int" >       12       10       13       13       14 </v>
   <v type="int" >       12       10       13       14       14 </v>
   <v type="int" >       12       34       35       36       44 </v>
   <v type="int" >       12       35       36       44       45 </v>
   <v type="int" >       12       36       44       45       46 </v>
   <v type="int" >       24       35       35       36       45 </v>
   <v type="int" >       12       35       36       36       45 </v>
   <v type="int" >       12       36       36       45       46 </v>
   <v type="int" >       12       35       36       45       45 </v>
   <v type="int" >       12       36       45       45       46 </v>
   <v type="int" >       12       36       45       46       46 </v>
   <v type="int" >       12       34       35       35       45 </v>
   <v type="int" >       12       35       36       45       46 </v>
   <v type="int" >       12       34       35       44       45 </v>
   <v type="int" >       12       35       44       45       45 </v>
   <v type="int" >       24       35       45       45       46 </v>
   <v type="int" >       12       32       33       34       44 </v>
   <v type="int" >       12       33       34       35       44 </v>
   <v type="int" >       12       33       35       44       45 </v>
   <v type="int" >       12       32       33       42       44 </v>
   <v type="int" >       12       33       42       43       44 </v>
   <v type="int" >       12       33       43       44       45 </v>
   <v type="int" >       12       29       30       32       42 </v>
   <v type="int" >       12       30       32       33       42 </v>
   <v type="int" >       12       30       33       42       43 </v>
   <v type="int" >       12       29       30       39       42 </v>
   <v type="int" >       12       30       39       40       42 </v>
   <v type="int" >       12       30       40       42       43 </v>
   <v type="int" >       12       25       26       29       39 </v>
   <v type="int" >       12       26       29       30       39 </v>
   <v type="int" >       12       26       30       39       40 </v>
   <v type="int" >       12       10       10       11       14 </v>
   <v type="int" >       12       10       11       11       14 </v>
   <v type="int" >       12       11       11       14       15 </v>
   <v type="int" >       12       10       11       14       14 </v>
   <v type="int" >       12       11       14       14       15 </v>
   <v type="int" >       12       11       14       15       15 </v>
   <v type="int" >       12       36       36       36       46 </v>
   <v type="int" >       12       36       36       46       46 </v>
   <v type="int" >       12       36       46       46       46 </v>
   <v type="int" >       12       35       35       36       46 </v>
   <v type="int" >       12       35       36       36       46 </v>
   <v type="int" >       12       35       36       46       46 </v>
   <v type="int" >       12       35       35       45       46 </v>
   <v type="int" >       12       35       45       46       46 </v>
   <v type="int" >       12       33       33       35       45 </v>
   <v type="int" >       12       33       35       35       45 </v>
   <v type="int" >       12       33       35       45       45 </v>
   <v type="int" >       12       33       33       43       45 </v>
   <v type="int" >       12       33       43       43       45 </v>
   <v type="int" >       12       33       43       45       45 </v>
   <v type="int" >       12       30       30       33       43 </v>
   <v type="int" >       12       30       33       33       43 </v>
   <v type="int" >       12       30       33       43       43 </v>
   <v type="int" >       12       30       30       40       43 </v>
   <v type="int" >       12       30       40       40       43 </v>
   <v type="int" >       12       30       40       43       43 </v>
   <v type="int" >       12       26       26       30       40 </v>
   <v type="int" >       12       26       30       30       40 </v>
   <v type="int" >       12       26       30       40       40 </v>
   <v type="int" >       24       11       11       11       15 </v>
   <v type="int" >       24       11       11       15       15 </v>
   <v type="int" >       24       11       15       15       15 </v>
   <v type="int" >       12       34       35       36       46 </v>
   <v type="int" >       12       34       35       45       46 </v>
   <v type="int" >       12       34       44       45       46 </v>
   <v type="int" >       12       32       33       35       45 </v>
   <v type="int" >       12       32       34       35       45 </v>
   <v type="int" >       12       32       34       44       45 </v>
   <v type="int" >       12       32       33       43       45 </v>
   <v type="int" >       12       32       42       43       45 </v>
   <v type="int" >       12       32       42       44       45 </v>
   <v type="int" >       12       29       30       33       43 </v>
   <v type="int" >       12       29       32       33       43 </v>
   <v type="int" >       12       29       32       42       43 </v>
   <v type="int" >       12       29       30       40       43 </v>
   <v type="int" >       12       29       39       40       43 </v>
   <v type="int" >       12       29       39       42       43 </v>
   <v type="int" >       12       25       26       30       40 </v>
   <v type="int" >       12       25       29       30       40 </v>
   <v type="int" >       12       25       29       39       40 </v>
   <v type="int" >       12       10       11       11       15 </v>
   <v type="int" >       12       10       10       11       15 </v>
   <v type="int" >       12       10       10       14       15 </v>
   <v type="int" >       12       10       11       15       15 </v>
   <v type="int" >       12       10       14       15       15 </v>
   <v type="int" >       12       10       14       14       15 </v>
   <v type="int" >       12       31       32       34       44 </v>
   <v type="int" >       12       31       32       42       44 </v>
   <v type="int" >       12       31       41       42       44 </v>
   <v type="int" >       12       28       29       32       42 </v>
   <v type="int" >       12       28       31       32       42 </v>
   <v type="int" >       12       28       31       41       42 </v>
   <v type="int" >       12       28       29       39       42 </v>
   <v type="int" >       12       28       38       39       42 </v>
   <v type="int" >       12       28       38       41       42 </v>
   <v type="int" >       12       24       25       29       39 </v>
   <v type="int" >       12       24       28       29       39 </v>
   <v type="int" >       12       24       28       38       39 </v>
   <v type="int" >       12        9       10       10       14 </v>
   <v type="int" >       12        9        9       10       14 </v>
   <v type="int" >       12        9        9       13       14 </v>
   <v type="int" >       12        9       10       14       14 </v>
   <v type="int" >       12        9       13       14       14 </v>
   <v type="int" >       12        9       13       13       14 </v>
   <v type="int" >       12       27       28       31       41 </v>
   <v type="int" >       12       27       28       38       41 </v>
   <v type="int" >       12       27       37       38       41 </v>
   <v type="int" >       12       23       24       28       38 </v>
   <v type="int" >       12       23       27       28       38 </v>
   <v type="int" >       12       23       27       37       38 </v>
   <v type="int" >       12        8        9        9       13 </v>
   <v type="int" >       12        8        8        9       13 </v>
   <v type="int" >       12        8        8       12       13 </v>
   <v type="int" >       12        8        9       13       13 </v>
   <v type="int" >       12        8       12       13       13 </v>
   <v type="int" >       12        8       12       12       13 </v>
   <v type="int" >       12       22       23       27       37 </v>
   <v type="int" >       12        7        8        8       12 </v>
   <v type="int" >       12        7        7        8       12 </v>
   <v type="int" >       12        7        8       12       12 </v>
   <v type="int" >       12        2        2        2        3 </v>
   <v type="int" >       12        2        2        3        3 </v>
   <v type="int" >       12        2        3        3        3 </v>
   <v type="int" >       12       37       38       38       41 </v>
   <v type="int" >       12       38       38       41       41 </v>
   <v type="int" >       12       38       41       41       47 </v>
   <v type="int" >       12       38       39       41       42 </v>
   <v type="int" >       12       38       41       41       42 </v>
   <v type="int" >       12       41       41       42       47 </v>
   <v type="int" >       12       39       41       42       42 </v>
   <v type="int" >       24       41       42       42       48 </v>
   <v type="int" >       24       41       42       47       48 </v>
   <v type="int" >       12       39       40       42       43 </v>
   <v type="int" >       12       39       42       42       43 </v>
   <v type="int" >       12       42       42       43       48 </v>
   <v type="int" >       12       40       42       43       43 </v>
   <v type="int" >       12       42       43       43       49 </v>
   <v type="int" >       12       42       43       48       49 </v>
   <v type="int" >        6       40       40       43       43 </v>
   <v type="int" >       12       40       43       43       43 </v>
   <v type="int" >       12       43       43       43       49 </v>
   <v type="int" >        6       43       43       49       49 </v>
   <v type="int" >        6       12       12       13       13 </v>
   <v type="int" >       12       12       13       13       13 </v>
   <v type="int" >       12       13       13       13       16 </v>
   <v type="int" >        6       13       13       16       16 </v>
   <v type="int" >       12       41       42       44       47 </v>
   <v type="int" >       12       42       44       47       48 </v>
   <v type="int" >       12       44       47       48       50 </v>
   <v type="int" >       12       42       43       45       48 </v>
   <v type="int" >       12       42       44       45       48 </v>
   <v type="int" >       12       44       45       48       50 </v>
   <v type="int" >       12       43       45       48       49 </v>
   <v type="int" >       12       45       48       49       51 </v>
   <v type="int" >       12       45       48       50       51 </v>
   <v type="int" >       12       43       43       45       49 </v>
   <v type="int" >       12       43       45       45       49 </v>
   <v type="int" >       12       45       45       49       51 </v>
   <v type="int" >       12       43       45       49       49 </v>
   <v type="int" >       12       45       49       49       51 </v>
   <v type="int" >       12       45       49       51       51 </v>
   <v type="int" >       12       42       43       44       49 </v>
   <v type="int" >       12       43       44       45       49 </v>
   <v type="int" >       12       44       45       49       51 </v>
   <v type="int" >       12       42       44       48       49 </v>
   <v type="int" >       12       44       48       49       50 </v>
   <v type="int" >       12       44       49       50       51 </v>
   <v type="int" >       12       42       42       44       48 </v>
   <v type="int" >       12       42       44       48       50 </v>
   <v type="int" >       12       42       47       48       48 </v>
   <v type="int" >       12       42       48       48       50 </v>
   <v type="int" >       12       38       39       41       47 </v>
   <v type="int" >       12       39       41       42       47 </v>
   <v type="int" >       12       39       42       47       48 </v>
   <v type="int" >       12       13       13       14       16 </v>
   <v type="int" >       12       13       14       14       16 </v>
   <v type="int" >       12       14       14       16       17 </v>
   <v type="int" >       12       13       14       16       16 </v>
   <v type="int" >       12       14       16       16       17 </v>
   <v type="int" >       12       14       16       17       17 </v>
   <v type="int" >       12       44       45       46       50 </v>
   <v type="int" >       12       45       46       50       51 </v>
   <v type="int" >       12       46       50       51       52 </v>
   <v type="int" >       24       45       45       46       51 </v>
   <v type="int" >       12       45       46       46       51 </v>
   <v type="int" >       12       46       46       51       52 </v>
   <v type="int" >       12       45       46       51       51 </v>
   <v type="int" >       12       46       51       51       52 </v>
   <v type="int" >       12       46       51       52       52 </v>
   <v type="int" >       12       44       45       45       51 </v>
   <v type="int" >       12       45       46       51       52 </v>
   <v type="int" >       12       44       45       50       51 </v>
   <v type="int" >       12       45       50       51       51 </v>
   <v type="int" >       24       45       51       51       52 </v>
   <v type="int" >       12       42       43       44       50 </v>
   <v type="int" >       12       43       44       45       50 </v>
   <v type="int" >       12       43       45       50       51 </v>
   <v type="int" >       12       42       43       48       50 </v>
   <v type="int" >       12       43       48       49       50 </v>
   <v type="int" >       12       43       49       50       51 </v>
   <v type="int" >       12       39       40       42       48 </v>
   <v type="int" >       12       40       42       43       48 </v>
   <v type="int" >       12       40       43       48       49 </v>
   <v type="int" >       12       14       14       15       17 </v>
   <v type="int" >       12       14       15       15       17 </v>
   <v type="int" >       12       15       15       17       18 </v>
   <v type="int" >       12       14       15       17       17 </v>
   <v type="int" >       12       15       17       17       18 </v>
   <v type="int" >       12       15       17       18       18 </v>
   <v type="int" >       12       46       46       46       52 </v>
   <v type="int" >       12       46       46       52       52 </v>
   <v type="int" >       12       46       52       52       52 </v>
   <v type="int" >       12       45       45       46       52 </v>
   <v type="int" >       12       45       46       46       52 </v>
   <v type="int" >       12       45       46       52       52 </v>
   <v type="int" >       12       45       45       51       52 </v>
   <v type="int" >       12       45       51       52       52 </v>
   <v type="int" >       12       43       43       45       51 </v>
   <v type="int" >       12       43       45       45       51 </v>
   <v type="int" >       12       43       45       51       51 </v>
   <v type="int" >       12       43       43       49       51 </v>
   <v type="int" >       12       43       49       49       51 </v>
   <v type="int" >       12       43       49       51       51 </v>
   <v type="int" >       12       40       40       43       49 </v>
   <v type="int" >       12       40       43       43       49 </v>
   <v type="int" >       12       40       43       49       49 </v>
   <v type="int" >       24       15       15       15       18 </v>
   <v type="int" >       24       15       15       18       18 </v>
   <v type="int" >       24       15       18       18       18 </v>
   <v type="int" >       12       44       45       46       52 </v>
   <v type="int" >       12       44       45       51       52 </v>
   <v type="int" >       12       44       50       51       52 </v>
   <v type="int" >       12       42       43       45       51 </v>
   <v type="int" >       12       42       44       45       51 </v>
   <v type="int" >       12       42       44       50       51 </v>
   <v type="int" >       12       42       43       49       51 </v>
   <v type="int" >       12       42       48       49       51 </v>
   <v type="int" >       12       42       48       50       51 </v>
   <v type="int" >       12       39       40       43       49 </v>
   <v type="int" >       12       39       42       43       49 </v>
   <v type="int" >       12       39       42       48       49 </v>
   <v type="int" >       12       14       15       15       18 </v>
   <v type="int" >       12       14       14       15       18 </v>
   <v type="int" >       12       14       14       17       18 </v>
   <v type="int" >       12       14       15       18       18 </v>
   <v type="int" >       12       14       17       18       18 </v>
   <v type="int" >       12       14       17       17       18 </v>
   <v type="int" >       12       41       42       44       50 </v>
   <v type="int" >       12       41       42       48       50 </v>
   <v type="int" >       12       41       47       48       50 </v>
   <v type="int" >       12       38       39       42       48 </v>
   <v type="int" >       12       38       41       42       48 </v>
   <v type="int" >       12       38       41       47       48 </v>
   <v type="int" >       12       13       14       14       17 </v>
   <v type="int" >       12       13       13       14       17 </v>
   <v type="int" >       12       13       13       16       17 </v>
   <v type="int" >       12       13       14       17       17 </v>
   <v type="int" >       12       13       16       17       17 </v>
   <v type="int" >       12       13       16       16       17 </v>
   <v type="int" >       12       37       38       41       47 </v>
   <v type="int" >       12       12       13       13       16 </v>
   <v type="int" >       12       12       12       13       16 </v>
   <v type="int" >       12       12       13       16       16 </v>
   <v type="int" >       12        3        3        3        4 </v>
   <v type="int" >       12        3        3        4        4 </v>
   <v type="int" >       12        3        4        4        4 </v>
   <v type="int" >       12       47       48       48       50 </v>
   <v type="int" >       12       48       48       50       50 </v>
   <v type="int" >       12       48       50       50       53 </v>
   <v type="int" >       12       48       49       50       51 </v>
   <v type="int" >       12       48       50       50       51 </v>
   <v type="int" >       12       50       50       51       53 </v>
   <v type="int" >       12       49       50       51       51 </v>
   <v type="int" >       24       50       51       51       54 </v>
   <v type="int" >       24       50       51       53       54 </v>
   <v type="int" >        6       49       49       51       51 </v>
   <v type="int" >       12       49       51       51       51 </v>
   <v type="int" >       12       51       51       51       54 </v>
   <v type="int" >        6       51       51       54       54 </v>
   <v type="int" >        6       16       16       17       17 </v>
   <v type="int" >       12       16       17       17       17 </v>
   <v type="int" >       12       17       17       17       19 </v>
   <v type="int" >        6       17       17       19       19 </v>
   <v type="int" >       12       50       51       52       53 </v>
   <v type="int" >       12       51       52       53       54 </v>
   <v type="int" >       12       52       53       54       55 </v>
   <v type="int" >       24       51       51       52       54 </v>
   <v type="int" >       12       51       52       52       54 </v>
   <v type="int" >       12       52       52       54       55 </v>
   <v type="int" >       12       51       52       54       54 </v>
   <v type="int" >       12       52       54       54       55 </v>
   <v type="int" >       12       52       54       55       55 </v>
   <v type="int" >       12       51       52       54       55 </v>
   <v type="int" >       12       51       53       54       54 </v>
   <v type="int" >       24       51       54       54       55 </v>
   <v type="int" >       12       48       49       50       53 </v>
   <v type="int" >       12       49       50       51       53 </v>
   <v type="int" >       12       49       51       53       54 </v>
   <v type="int" >       12       17       17       18       19 </v>
   <v type="int" >       12       17       18       18       19 </v>
   <v type="int" >       12       18       18       19       20 </v>
   <v type="int" >       12       17       18       19       19 </v>
   <v type="int" >       12       18       19       19       20 </v>
   <v type="int" >       12       18       19       20       20 </v>
   <v type="int" >       12       52       52       52       55 </v>
   <v type="int" >       12       52       52       55       55 </v>
   <v type="int" >       12       52       55       55       55 </v>
   <v type="int" >       12       51       51       52       55 </v>
   <v type="int" >       12       51       52       52       55 </v>
   <v type="int" >       12       51       52       55       55 </v>
   <v type="int" >       12       51       51       54       55 </v>
   <v type="int" >       12       51       54       55       55 </v>
   <v type="int" >       12       49       49       51       54 </v>
   <v type="int" >       12       49       51       51       54 </v>
   <v type="int" >       12       49       51       54       54 </v>
   <v type="int" >       24       18       18       18       20 </v>
   <v type="int" >       24       18       18       20       20 </v>
   <v type="int" >       24       18       20       20       20 </v>
   <v type="int" >       12       50       51       52       55 </v>
   <v type="int" >       12       50       51       54       55 </v>
   <v type="int" >       12       50       53       54       55 </v>
   <v type="int" >       12       48       49       51       54 </v>
   <v type="int" >       12       48       50       51       54 </v>
   <v type="int" >       12       48       50       53       54 </v>
   <v type="int" >       12       17       18       18       20 </v>
   <v type="int" >       12       17       17       18       20 </v>
   <v type="int" >       12       17       17       19       20 </v>
   <v type="int" >       12       17       18       20       20 </v>
   <v type="int" >       12       17       19       20       20 </v>
   <v type="int" >       12       17       19       19       20 </v>
   <v type="int" >       12       47       48       50       53 </v>
   <v type="int" >       12       16       17       17       19 </v>
   <v type="int" >       12       16       16       17       19 </v>
   <v type="int" >       12       16       17       19       19 </v>
   <v type="int" >       12        4        4        4        5 </v>
   <v type="int" >       12        4        4        5        5 </v>
   <v type="int" >       12        4        5        5        5 </v>
   <v type="int" >       12       53       54       54       55 </v>
   <v type="int" >       18       54       54       55       55 </v>
   <v type="int" >       24       54       55       55       56 </v>
   <v type="int" >       12       54       55       55       55 </v>
   <v type="int" >       24       55       55       55       56 </v>
   <v type="int" >       18       55       55       56       56 </v>
   <v type="int" >        6       19       19       20       20 </v>
   <v type="int" >       12       19       20       20       20 </v>
   <v type="int" >       36       20       20       20       21 </v>
   <v type="int" >       30       20       20       21       21 </v>
   <v type="int" >       12       55       56       56       56 </v>
   <v type="int" >       12       54       54       55       56 </v>
   <v type="int" >       12       54       55       56       56 </v>
   <v type="int" >       24       20       21       21       21 </v>
   <v type="int" >       12       53       54       55       56 </v>
   <v type="int" >       12       19       20       20       21 </v>
   <v type="int" >       12       19       19       20       21 </v>
   <v type="int" >       12       19       20       21       21 </v>
   <v type="int" >       12        5        5        5        6 </v>
   <v type="int" >       12        5        5        6        6 </v>
   <v type="int" >       12        5        6        6        6 </v>
   <v type="int" >        6       56       56       56       56 </v>
   <v type="int" >       18       21       21       21       21 </v>
   <v type="int" >       18        6        6        6        6 </v>
   <v type="int" >        6        1        1        1        1 </v>
  </varray>
  <i name="volumeweight">      0.00009645 </i>
 </kpoints>
 <parameters>
  <separator name="general" >
   <i type="string" name="SYSTEM">unknown system</i>
   <i type="logical" name="LCOMPAT"> F  </i>
  </separator>
  <separator name="electronic" >
   <i type="string" name="PREC">accura</i>
   <i name="ENMAX">    500.00000000</i>
   <i name="ENAUG">    525.94900000</i>
   <i name="EDIFF">      0.00010000</i>
   <i type="int" name="IALGO">    68</i>
   <i type="int" name="IWAVPR">    10</i>
   <i type="int" name="NBANDS">    72</i>
   <i name="NELECT">    112.00000000</i>
   <i type="int" name="TURBO">     0</i>
   <i type="int" name="IRESTART">     0</i>
   <i type="int" name="NREBOOT">     0</i>
   <i type="int" name="NMIN">     0</i>
   <i name="EREF">      0.00000000</i>
   <separator name="electronic smearing" >
    <i type="int" name="ISMEAR">    -5</i>
    <i name="SIGMA">      0.20000000</i>
    <i name="KSPACING">      0.50000000</i>
    <i type="logical" name="KGAMMA"> T  </i>
   </separator>
   <separator name="electronic projectors" >
    <i type="logical" name="LREAL"> T  </i>
    <v name="ROPT">     -0.00025000     -0.00025000</v>
    <i type="int" name="LMAXPAW">  -100</i>
    <i type="int" name="LMAXMIX">     2</i>
    <i type="logical" name="NLSPLINE"> F  </i>
   </separator>
   <separator name="electronic startup" >
    <i type="int" name="ISTART">     0</i>
    <i type="int" name="ICHARG">     2</i>
    <i type="int" name="INIWAV">     1</i>
   </separator>
   <separator name="electronic spin" >
    <i type="int" name="ISPIN">     1</i>
    <i type="logical" name="LNONCOLLINEAR"> F  </i>
    <v name="MAGMOM">      1.00000000      1.00000000      1.00000000      1.00000000      1.00000000      1.00000000      1.00000000      1.00000000</v>
    <i name="NUPDOWN">     -1.00000000</i>
    <i type="logical" name="LSORBIT"> F  </i>
    <v name="SAXIS">      0.00000000      0.00000000      1.00000000</v>
    <i type="logical" name="LSPIRAL"> F  </i>
    <v name="QSPIRAL">      0.00000000      0.00000000      0.00000000</v>
    <i type="logical" name="LZEROZ"> F  </i>
   </separator>
   <separator name="electronic exchange-correlation" >
    <i type="logical" name="LASPH"> F  </i>
    <i type="logical" name="LMETAGGA"> F  </i>
   </separator>
   <separator name="electronic convergence" >
    <i type="int" name="NELM">   100</i>
    <i type="int" name="NELMDL">    -5</i>
    <i type="int" name="NELMIN">     2</i>
    <i name="ENINI">    500.00000000</i>
    <separator name="electronic convergence detail" >
     <i type="logical" name="LDIAG"> T  </i>
     <i type="logical" name="LSUBROT"> T  </i>
     <i name="WEIMIN">      0.00000000</i>
     <i name="EBREAK">      0.00000035</i>
     <i name="DEPER">      0.30000000</i>
     <i type="int" name="NRMM">     4</i>
     <i name="TIME">      0.40000000</i>
    </separator>
   </separator>
   <separator name="electronic mixer" >
    <i name="AMIX">      0.40000000</i>
    <i name="BMIX">      1.00000000</i>
    <i name="AMIN">      0.10000000</i>
    <i name="AMIX_MAG">      1.60000000</i>
    <i name="BMIX_MAG">      1.00000000</i>
    <separator name="electronic mixer details" >
     <i type="int" name="IMIX">     4</i>
     <i type="int" name="MAXMIX">   -45</i>
     <i name="WC">    100.00000000</i>
     <i type="int" name="INIMIX">     1</i>
     <i type="int" name="MIXPRE">     1</i>
     <i type="int" name="MREMOVE">     5</i>
    </separator>
   </separator>
   <separator name="electronic dipolcorrection" >
    <i type="logical" name="LDIPOL"> F  </i>
    <i type="logical" name="LMONO"> F  </i>
    <i type="int" name="IDIPOL">     0</i>
    <i name="EPSILON">      1.00000000</i>
    <v name="DIPOL">   -100.00000000   -100.00000000   -100.00000000</v>
    <i name="EFIELD">      0.00000000</i>
   </separator>
  </separator>
  <separator name="grids" >
   <i type="int" name="NGX">    42</i>
   <i type="int" name="NGY">    42</i>
   <i type="int" name="NGZ">    42</i>
   <i type="int" name="NGXF">    84</i>
   <i type="int" name="NGYF">    84</i>
   <i type="int" name="NGZF">    84</i>
   <i type="logical" name="ADDGRID"> F  </i>
  </separator>
  <separator name="ionic" >
   <i type="int" name="NSW">     0</i>
   <i type="int" name="IBRION">    -1</i>
   <i type="int" name="ISIF">     2</i>
   <i name="PSTRESS">      0.00000000</i>
   <i name="EDIFFG">      0.00100000</i>
   <i type="int" name="NFREE">     0</i>
   <i name="POTIM">      0.50000000</i>
   <i name="SMASS">     -3.00000000</i>
   <i name="SCALEE">      1.00000000</i>
  </separator>
  <separator name="ionic md" >
   <i name="TEBEG">      0.00010000</i>
   <i name="TEEND">      0.00010000</i>
   <i type="int" name="NBLOCK">     1</i>
   <i type="int" name="KBLOCK">     1</i>
   <i type="int" name="NPACO">   256</i>
   <i name="APACO">     16.00000000</i>
  </separator>
  <separator name="symmetry" >
   <i type="int" name="ISYM">     2</i>
   <i name="SYMPREC">      0.00001000</i>
  </separator>
  <separator name="dos" >
   <i type="logical" name="LORBIT"> F  </i>
   <v name="RWIGS">     -1.00000000     -1.00000000</v>
   <i type="int" name="NEDOS">   301</i>
   <i name="EMIN">     10.00000000</i>
   <i name="EMAX">    -10.00000000</i>
   <i name="EFERMI">      0.00000000</i>
  </separator>
  <separator name="writing" >
   <i type="int" name="NWRITE">     2</i>
   <i type="logical" name="LWAVE"> F  </i>
   <i type="logical" name="LCHARG"> T  </i>
   <i type="logical" name="LPARD"> F  </i>
   <i type="logical" name="LVTOT"> F  </i>
   <i type="logical" name="LVHAR"> F  </i>
   <i type="logical" name="LELF"> F  </i>
   <i type="logical" name="LOPTICS"> F  </i>
   <v name="STM">      0.00000000      0.00000000      0.00000000      0.00000000      0.00000000      0.00000000      0.00000000</v>
  </separator>
  <separator name="performance" >
   <i type="int" name="NPAR">     8</i>
   <i type="int" name="NSIM">     4</i>
   <i type="int" name="NBLK">    -1</i>
   <i type="logical" name="LPLANE"> T  </i>
   <i type="logical" name="LSCALAPACK"> T  </i>
   <i type="logical" name="LSCAAWARE"> F  </i>
   <i type="logical" name="LSCALU"> F  </i>
   <i type="logical" name="LASYNC"> F  </i>
   <i type="logical" name="LORBITALREAL"> F  </i>
  </separator>
  <separator name="miscellaneous" >
   <i type="int" name="IDIOT">     3</i>
   <i type="logical" name="LMUSIC"> F  </i>
   <v name="POMASS">     69.72300000     74.92200000</v>
   <v name="DARWINR">      0.00000000      0.00000000</v>
   <v name="DARWINV">      1.00000000      1.00000000</v>
   <i type="logical" name="LCORR"> T  </i>
  </separator>
  <i type="logical" name="GGA_COMPAT"> T  </i>
  <i type="logical" name="LBERRY"> F  </i>
  <i type="int" name="ICORELEVEL">     0</i>
  <i type="logical" name="LDAU"> F  </i>
  <i type="int" name="I_CONSTRAINED_M">     0</i>
  <separator name="electronic exchange-correlation" >
   <i type="string" name="GGA">--</i>
   <i type="int" name="VOSKOWN">     0</i>
   <i type="logical" name="LHFCALC"> F  </i>
   <i type="string" name="PRECFOCK"></i>
   <i type="logical" name="LSYMGRAD"> F  </i>
   <i type="logical" name="LHFONE"> F  </i>
   <i type="logical" name="LRHFCALC"> F  </i>
   <i type="logical" name="LTHOMAS"> F  </i>
   <i type="logical" name="LMODELHF"> F  </i>
   <i name="ENCUT4O">     -1.00000000</i>
   <i type="int" name="EXXOEP">     0</i>
   <i type="int" name="FOURORBIT">     0</i>
   <i name="AEXX">      0.00000000</i>
   <i name="HFALPHA">      0.00000000</i>
   <i name="MCALPHA">      0.00000000</i>
   <i name="ALDAX">      1.00000000</i>
   <i name="AGGAX">      1.00000000</i>
   <i name="ALDAC">      1.00000000</i>
   <i name="AGGAC">      1.00000000</i>
   <i type="int" name="NKREDX">     1</i>
   <i type="int" name="NKREDY">     1</i>
   <i type="int" name="NKREDZ">     1</i>
   <i type="logical" name="SHIFTRED"> F  </i>
   <i type="logical" name="ODDONLY"> F  </i>
   <i type="logical" name="EVENONLY"> F  </i>
   <i type="int" name="LMAXFOCK">     0</i>
   <i type="int" name="NMAXFOCKAE">     0</i>
   <i type="logical" name="LFOCKAEDFT"> F  </i>
   <i name="HFSCREEN">      0.00000000</i>
   <i name="HFSCREENC">      0.00000000</i>
   <i type="int" name="NBANDSGWLOW">     0</i>
  </separator>
  <separator name="vdW DFT" >
   <i type="logical" name="LUSE_VDW"> F  </i>
   <i name="Zab_VDW">     -0.84910000</i>
   <i name="PARAM1">      0.12340000</i>
   <i name="PARAM2">      1.00000000</i>
   <i name="PARAM3">      0.00000000</i>
  </separator>
  <separator name="model GW" >
   <i type="int" name="MODEL_GW">     0</i>
   <i name="MODEL_EPS0">     13.19191132</i>
   <i name="MODEL_ALPHA">      1.00000000</i>
  </separator>
  <separator name="linear response parameters" >
   <i type="logical" name="LEPSILON"> F  </i>
   <i type="logical" name="LRPA"> F  </i>
   <i type="logical" name="LNABLA"> F  </i>
   <i type="logical" name="LVEL"> F  </i>
   <i type="int" name="KINTER">     0</i>
   <i name="CSHIFT">      0.10000000</i>
   <i name="OMEGAMAX">     -1.00000000</i>
   <i name="DEG_THRESHOLD">      0.00200000</i>
  </separator>
  <separator name="orbital magnetization" >
   <i type="logical" name="NUCIND"> F  </i>
   <v name="MAGPOS">      0.00000000      0.00000000      0.00000000</v>
   <i type="logical" name="LNICSALL"> T  </i>
   <i type="logical" name="ORBITALMAG"> F  </i>
   <i type="logical" name="LMAGBLOCH"> F  </i>
   <i type="logical" name="LCHIMAG"> F  </i>
   <i type="logical" name="LGAUGE"> T  </i>
   <i type="int" name="MAGATOM">     0</i>
   <v name="MAGDIPOL">      0.00000000      0.00000000      0.00000000</v>
   <v name="AVECCONST">      0.00000000      0.00000000      0.00000000</v>
  </separator>
  <separator name="response functions" >
   <i type="logical" name="LADDER"> F  </i>
   <i type="logical" name="LFXC"> F  </i>
   <i type="logical" name="LHARTREE"> T  </i>
   <i type="int" name="IBSE">     0</i>
   <i type="logical" name="LTCTE"> F  </i>
   <i type="logical" name="LTETE"> F  </i>
   <i type="logical" name="LTRIPLET"> F  </i>
   <i type="logical" name="LFXCEPS"> F  </i>
   <i type="logical" name="L2ORDER"> F  </i>
   <i type="logical" name="LUSEW"> F  </i>
   <i name="ENCUTGW">     -2.00000000</i>
   <i name="ENCUTGWSOFT">     -2.00000000</i>
   <i name="ENCUTLF">     -1.00000000</i>
   <i type="int" name="LMAXMP2">    -1</i>
   <i name="SCISSOR">      0.00000000</i>
   <i type="int" name="NOMEGA">     0</i>
   <i type="int" name="NOMEGAR">     0</i>
   <i type="int" name="NBANDSGW">    -1</i>
   <i type="int" name="NBANDSO">    -1</i>
   <i type="int" name="NBANDSV">    -1</i>
   <i type="int" name="NELM">   100</i>
   <i type="int" name="DIM">     3</i>
   <i type="int" name="ANTIRES">     0</i>
   <i name="OMEGAMAX">    -30.00000000</i>
   <i name="OMEGATL">   -200.00000000</i>
   <i type="int" name="OMEGAGRID">     0</i>
   <i name="CSHIFT">     -0.10000000</i>
   <i type="logical" name="SELFENERGY"> F  </i>
   <i type="logical" name="LSPECTRAL"> F  </i>
   <i type="logical" name="ODDONLYGW"> F  </i>
   <i type="logical" name="EVENONLYGW"> F  </i>
   <i type="int" name="NKREDLFX">     1</i>
   <i type="int" name="NKREDLFY">     1</i>
   <i type="int" name="NKREDLFZ">     1</i>
   <i type="int" name="MAXMEM">  1800</i>
   <i type="int" name="TELESCOPE">     0</i>
  </separator>
 </parameters>
 <atominfo>
  <atoms>       8 </atoms>
  <types>       2 </types>
  <array name="atoms" >
   <dimension dim="1">ion</dimension>
   <field type="string">element</field>
   <field type="int">atomtype</field>
   <set>
    <rc><c>Ga</c><c>   1</c></rc>
    <rc><c>Ga</c><c>   1</c></rc>
    <rc><c>Ga</c><c>   1</c></rc>
    <rc><c>Ga</c><c>   1</c></rc>
    <rc><c>As</c><c>   2</c></rc>
    <rc><c>As</c><c>   2</c></rc>
    <rc><c>As</c><c>   2</c></rc>
    <rc><c>As</c><c>   2</c></rc>
   </set>
  </array>
  <array name="atomtypes" >
   <dimension dim="1">type</dimension>
   <field type="int">atomspertype</field>
   <field type="string">element</field>
   <field>mass</field>
   <field>valence</field>
   <field type="string">pseudopotential</field>
   <set>
    <rc><c>   4</c><c>Ga</c><c>     69.72300000</c><c>     13.00000000</c><c>  PAW Ga_d 06Jul2010                    </c></rc>
    <rc><c>   4</c><c>As</c><c>     74.92200000</c><c>     15.00000000</c><c>  PAW As_d 11Apr2003                    </c></rc>
   </set>
  </array>
 </atominfo>
 <structure name="initialpos" >
  <crystal>
   <varray name="basis" >
    <v>       5.60293374       0.00000000       0.00000000 </v>
    <v>       0.00000000       5.60293374       0.00000000 </v>
    <v>       0.00000000       0.00000000       5.60293374 </v>
   </varray>
   <i name="volume">    175.89215089 </i>
   <varray name="rec_basis" >
    <v>       0.17847793       0.00000000       0.00000000 </v>
    <v>       0.00000000       0.17847793       0.00000000 </v>
    <v>       0.00000000       0.00000000       0.17847793 </v>
   </varray>
  </crystal>
  <varray name="positions" >
   <v>       0.00000000       0.00000000       0.00000000 </v>
   <v>       0.50000000       0.50000000       0.00000000 </v>
   <v>       0.50000000       0.00000000       0.50000000 </v>
   <v>       0.00000000       0.50000000       0.50000000 </v>
   <v>       0.75000000       0.25000000       0.25000000 </v>
   <v>       0.25000000       0.75000000       0.25000000 </v>
   <v>       0.25000000       0.25000000       0.75000000 </v>
   <v>       0.75000000       0.75000000       0.75000000 </v>
  </varray>
 </structure>
 <calculation>
  <scstep>
   <time name="dav">  108.15  109.74</time>
   <time name="total">  108.51  110.22</time>
   <energy>
    <i name="alphaZ">    661.35847752 </i>
    <i name="ewald"> -10892.82783025 </i>
    <i name="hartreedc">  -5917.20493774 </i>
    <i name="XCdc">    511.36519484 </i>
    <i name="pawpsdc">  14758.11161336 </i>
    <i name="pawaedc"> -18337.72182118 </i>
    <i name="eentropy">      0.00000000 </i>
    <i name="bandstr">   -456.14547874 </i>
    <i name="atom">  21018.84267038 </i>
    <i name="e_fr_energy">   1345.77788819 </i>
    <i name="e_wo_entrp">   1345.77788819 </i>
    <i name="e_0_energy">   1345.77788819 </i>
   </energy>
  </scstep>
  <scstep>
   <time name="dav">   78.77   78.83</time>
   <time name="total">   79.06   79.33</time>
   <energy>
    <i name="e_fr_energy">    282.06293790 </i>
    <i name="e_wo_entrp">    282.06293790 </i>
    <i name="e_0_energy">    282.06293790 </i>
   </energy>
  </scstep>
  <scstep>
   <time name="dav">   83.09   83.84</time>
   <time name="total">   83.16   84.06</time>
   <energy>
    <i name="e_fr_energy">     -2.86492278 </i>
    <i name="e_wo_entrp">     -2.86492278 </i>
    <i name="e_0_energy">     -2.86492278 </i>
   </energy>
  </scstep>
  <scstep>
   <time name="dav">   89.68   89.91</time>
   <time name="total">   89.72   90.14</time>
   <energy>
    <i name="e_fr_energy">    -37.79155257 </i>
    <i name="e_wo_entrp">    -37.79155257 </i>
    <i name="e_0_energy">    -37.79155257 </i>
   </energy>
  </scstep>
  <scstep>
   <time name="dav">   87.83   88.05</time>
   <time name="total">   92.93   93.48</time>
   <energy>
    <i name="e_fr_energy">    -39.45316131 </i>
    <i name="e_wo_entrp">    -39.45316131 </i>
    <i name="e_0_energy">    -39.45316131 </i>
   </energy>
  </scstep>
  <scstep>
   <time name="diag">   14.26   14.26</time>
   <time name="diis">   56.12   56.13</time>
   <time name="orth">    1.08    1.09</time>
   <time name="total">   76.26   76.46</time>
   <energy>
    <i name="e_fr_energy">    -38.78778155 </i>
    <i name="e_wo_entrp">    -38.78778155 </i>
    <i name="e_0_energy">    -38.78778155 </i>
   </energy>
  </scstep>
  <scstep>
   <time name="diag">   14.30   14.30</time>
   <time name="diis">   58.89   59.03</time>
   <time name="orth">    1.23    1.23</time>
   <time name="total">   79.44   79.86</time>
   <energy>
    <i name="e_fr_energy">    -38.60575868 </i>
    <i name="e_wo_entrp">    -38.60575868 </i>
    <i name="e_0_energy">    -38.60575868 </i>
   </energy>
  </scstep>
  <scstep>
   <time name="diag">   15.36   15.40</time>
   <time name="diis">   58.04   58.11</time>
   <time name="orth">    1.24    1.24</time>
   <time name="total">   79.75   80.05</time>
   <energy>
    <i name="e_fr_energy">    -38.58678299 </i>
    <i name="e_wo_entrp">    -38.58678299 </i>
[...]
        <r>  0.0659  0.0054  0.0054  0.0054  0.0001  0.0001  0.0000  0.0001  0.0000 </r>
        <r>  0.0659  0.0054  0.0054  0.0054  0.0001  0.0001  0.0000  0.0001  0.0000 </r>
        <r>  0.0109  0.0201  0.0201  0.0201  0.0004  0.0004  0.0000  0.0004  0.0000 </r>
        <r>  0.0109  0.0201  0.0201  0.0201  0.0004  0.0004  0.0000  0.0004  0.0000 </r>
        <r>  0.0109  0.0201  0.0201  0.0201  0.0004  0.0004  0.0000  0.0004  0.0000 </r>
        <r>  0.0109  0.0201  0.0201  0.0201  0.0004  0.0004  0.0000  0.0004  0.0000 </r>
       </set>
       <set comment="band 49">
        <r>  0.0100  0.0177  0.0236  0.0302  0.0045  0.0022  0.0005  0.0026  0.0003 </r>
        <r>  0.0026  0.0016  0.0159  0.0073  0.0007  0.0018  0.0015  0.0008  0.0003 </r>
        <r>  0.0036  0.0047  0.0106  0.0158  0.0025  0.0013  0.0010  0.0002  0.0006 </r>
        <r>  0.0055  0.0132  0.0240  0.0059  0.0020  0.0025  0.0007  0.0011  0.0006 </r>
        <r>  0.0029  0.0269  0.0481  0.0451  0.0013  0.0000  0.0002  0.0007  0.0002 </r>
        <r>  0.0019  0.0055  0.0493  0.0310  0.0002  0.0009  0.0003  0.0006  0.0002 </r>
        <r>  0.0014  0.0136  0.0198  0.0340  0.0013  0.0001  0.0004  0.0001  0.0001 </r>
        <r>  0.0053  0.0558  0.0908  0.0550  0.0005  0.0017  0.0001  0.0007  0.0001 </r>
       </set>
       <set comment="band 50">
        <r>  0.0052  0.0175  0.0138  0.0102  0.0004  0.0023  0.0013  0.0028  0.0001 </r>
        <r>  0.0124  0.0379  0.0207  0.0283  0.0041  0.0037  0.0004  0.0035  0.0001 </r>
        <r>  0.0013  0.0114  0.0043  0.0013  0.0010  0.0001  0.0005  0.0011  0.0015 </r>
        <r>  0.0026  0.0029  0.0111  0.0111  0.0010  0.0005  0.0003  0.0018  0.0015 </r>
        <r>  0.0014  0.0311  0.0231  0.0142  0.0006  0.0008  0.0001  0.0000  0.0004 </r>
        <r>  0.0007  0.0240  0.0201  0.0010  0.0001  0.0004  0.0001  0.0007  0.0004 </r>
        <r>  0.0065  0.0827  0.0824  0.0808  0.0005  0.0011  0.0001  0.0019  0.0000 </r>
        <r>  0.0028  0.0577  0.0126  0.0453  0.0013  0.0002  0.0004  0.0005  0.0000 </r>
       </set>
       <set comment="band 51">
        <r>  0.0010  0.0073  0.0052  0.0023  0.0007  0.0011  0.0003  0.0002  0.0017 </r>
        <r>  0.0012  0.0031  0.0060  0.0070  0.0008  0.0001  0.0003  0.0013  0.0017 </r>
        <r>  0.0113  0.0265  0.0277  0.0255  0.0020  0.0041  0.0006  0.0042  0.0000 </r>
        <r>  0.0081  0.0266  0.0075  0.0256  0.0026  0.0026  0.0011  0.0026  0.0000 </r>
        <r>  0.0043  0.0608  0.0475  0.0594  0.0001  0.0012  0.0003  0.0012  0.0000 </r>
        <r>  0.0059  0.0893  0.0493  0.0867  0.0017  0.0007  0.0002  0.0008  0.0000 </r>
        <r>  0.0006  0.0224  0.0165  0.0040  0.0003  0.0008  0.0001  0.0001  0.0005 </r>
        <r>  0.0005  0.0052  0.0154  0.0184  0.0002  0.0001  0.0001  0.0008  0.0005 </r>
       </set>
       <set comment="band 52">
        <r>  0.0000  0.0009  0.0211  0.0268  0.0027  0.0034  0.0010  0.0001  0.0005 </r>
        <r>  0.0000  0.0378  0.0211  0.0031  0.0027  0.0004  0.0010  0.0048  0.0009 </r>
        <r>  0.0000  0.0009  0.0009  0.0031  0.0001  0.0004  0.0000  0.0001  0.0001 </r>
        <r>  0.0000  0.0378  0.0009  0.0268  0.0001  0.0034  0.0000  0.0048  0.0020 </r>
        <r>  0.0000  0.1063  0.0026  0.0754  0.0000  0.0009  0.0000  0.0013  0.0006 </r>
        <r>  0.0000  0.0026  0.0026  0.0087  0.0000  0.0001  0.0000  0.0000  0.0000 </r>
        <r>  0.0000  0.1063  0.0595  0.0087  0.0007  0.0001  0.0003  0.0013  0.0003 </r>
        <r>  0.0000  0.0026  0.0595  0.0754  0.0007  0.0009  0.0003  0.0000  0.0001 </r>
       </set>
       <set comment="band 53">
        <r>  0.0000  0.0435  0.0131  0.0089  0.0017  0.0011  0.0006  0.0056  0.0014 </r>
        <r>  0.0000  0.0016  0.0131  0.0090  0.0017  0.0011  0.0006  0.0002  0.0001 </r>
        <r>  0.0000  0.0435  0.0147  0.0090  0.0019  0.0011  0.0007  0.0056  0.0014 </r>
        <r>  0.0000  0.0016  0.0147  0.0089  0.0019  0.0011  0.0007  0.0002  0.0001 </r>
        <r>  0.0000  0.0044  0.0413  0.0249  0.0005  0.0003  0.0002  0.0001  0.0000 </r>
        <r>  0.0000  0.1224  0.0413  0.0252  0.0005  0.0003  0.0002  0.0015  0.0004 </r>
        <r>  0.0000  0.0044  0.0370  0.0252  0.0005  0.0003  0.0002  0.0001  0.0000 </r>
        <r>  0.0000  0.1225  0.0370  0.0249  0.0005  0.0003  0.0002  0.0015  0.0004 </r>
       </set>
       <set comment="band 54">
        <r>  0.0000  0.0009  0.0111  0.0097  0.0014  0.0012  0.0005  0.0001  0.0002 </r>
        <r>  0.0000  0.0060  0.0111  0.0333  0.0014  0.0043  0.0005  0.0008  0.0010 </r>
        <r>  0.0000  0.0009  0.0297  0.0333  0.0038  0.0043  0.0014  0.0001  0.0006 </r>
        <r>  0.0000  0.0060  0.0297  0.0097  0.0038  0.0012  0.0014  0.0008  0.0000 </r>
        <r>  0.0000  0.0169  0.0837  0.0272  0.0010  0.0003  0.0004  0.0002  0.0000 </r>
        <r>  0.0000  0.0025  0.0836  0.0937  0.0010  0.0012  0.0004  0.0000  0.0002 </r>
        <r>  0.0000  0.0169  0.0312  0.0937  0.0004  0.0012  0.0001  0.0002  0.0003 </r>
        <r>  0.0000  0.0025  0.0312  0.0272  0.0004  0.0003  0.0001  0.0000  0.0000 </r>
       </set>
       <set comment="band 55">
        <r>  0.0000  0.0148  0.0047  0.0256  0.0006  0.0034  0.0002  0.0020  0.0012 </r>
        <r>  0.0000  0.0148  0.0047  0.0256  0.0006  0.0034  0.0002  0.0020  0.0012 </r>
        <r>  0.0000  0.0148  0.0047  0.0256  0.0006  0.0034  0.0002  0.0020  0.0012 </r>
        <r>  0.0000  0.0148  0.0047  0.0256  0.0006  0.0034  0.0002  0.0020  0.0012 </r>
        <r>  0.0000  0.0422  0.0134  0.0731  0.0002  0.0009  0.0001  0.0005  0.0003 </r>
        <r>  0.0000  0.0422  0.0134  0.0731  0.0002  0.0009  0.0001  0.0005  0.0003 </r>
        <r>  0.0000  0.0422  0.0134  0.0731  0.0002  0.0009  0.0001  0.0005  0.0003 </r>
        <r>  0.0000  0.0422  0.0134  0.0731  0.0002  0.0009  0.0001  0.0005  0.0003 </r>
       </set>
       <set comment="band 56">
        <r>  0.0000  0.0153  0.0253  0.0044  0.0034  0.0006  0.0012  0.0020  0.0002 </r>
        <r>  0.0000  0.0153  0.0253  0.0044  0.0034  0.0006  0.0012  0.0020  0.0002 </r>
        <r>  0.0000  0.0153  0.0253  0.0044  0.0034  0.0006  0.0012  0.0020  0.0002 </r>
        <r>  0.0000  0.0153  0.0253  0.0044  0.0034  0.0006  0.0012  0.0020  0.0002 </r>
        <r>  0.0000  0.0436  0.0724  0.0127  0.0009  0.0002  0.0003  0.0005  0.0001 </r>
        <r>  0.0000  0.0436  0.0724  0.0127  0.0009  0.0002  0.0003  0.0005  0.0001 </r>
        <r>  0.0000  0.0436  0.0724  0.0127  0.0009  0.0002  0.0003  0.0005  0.0001 </r>
        <r>  0.0000  0.0436  0.0724  0.0127  0.0009  0.0002  0.0003  0.0005  0.0001 </r>
       </set>
       <set comment="band 57">
        <r>  0.0736  0.0047  0.0047  0.0047  0.0017  0.0017  0.0000  0.0017  0.0000 </r>
        <r>  0.0736  0.0047  0.0047  0.0047  0.0017  0.0017  0.0000  0.0017  0.0000 </r>
        <r>  0.0736  0.0047  0.0047  0.0047  0.0017  0.0017  0.0000  0.0017  0.0000 </r>
        <r>  0.0736  0.0047  0.0047  0.0047  0.0017  0.0017  0.0000  0.0017  0.0000 </r>
        <r>  0.0397  0.0044  0.0044  0.0044  0.0039  0.0039  0.0000  0.0039  0.0000 </r>
        <r>  0.0397  0.0044  0.0044  0.0044  0.0039  0.0039  0.0000  0.0039  0.0000 </r>
        <r>  0.0397  0.0044  0.0044  0.0044  0.0039  0.0039  0.0000  0.0039  0.0000 </r>
        <r>  0.0397  0.0044  0.0044  0.0044  0.0039  0.0039  0.0000  0.0039  0.0000 </r>
       </set>
       <set comment="band 58">
        <r>  0.0402  0.0043  0.0081  0.0046  0.0014  0.0007  0.0001  0.0038  0.0000 </r>
        <r>  0.0653  0.0073  0.0031  0.0061  0.0016  0.0033  0.0000  0.0004  0.0000 </r>
        <r>  0.1238  0.0078  0.0006  0.0065  0.0025  0.0014  0.0000  0.0004  0.0000 </r>
        <r>  0.0433  0.0013  0.0145  0.0011  0.0020  0.0014  0.0001  0.0024  0.0000 </r>
        <r>  0.0231  0.0118  0.0031  0.0064  0.0074  0.0020  0.0000  0.0032  0.0000 </r>
        <r>  0.0662  0.0018  0.0197  0.0051  0.0019  0.0035  0.0000  0.0025  0.0000 </r>
        <r>  0.0349  0.0001  0.0122  0.0106  0.0022  0.0064  0.0000  0.0027  0.0000 </r>
        <r>  0.0215  0.0145  0.0058  0.0009  0.0039  0.0025  0.0000  0.0063  0.0000 </r>
       </set>
       <set comment="band 59">
        <r>  0.0973  0.0027  0.0037  0.0092  0.0038  0.0004  0.0000  0.0005  0.0000 </r>
        <r>  0.1185  0.0002  0.0111  0.0038  0.0016  0.0001  0.0000  0.0027  0.0000 </r>
        <r>  0.0063  0.0074  0.0042  0.0062  0.0010  0.0031  0.0000  0.0024  0.0001 </r>
        <r>  0.0505  0.0142  0.0002  0.0023  0.0005  0.0034  0.0000  0.0018  0.0001 </r>
        <r>  0.0270  0.0016  0.0047  0.0156  0.0002  0.0048  0.0000  0.0071  0.0000 </r>
        <r>  0.0034  0.0077  0.0016  0.0097  0.0029  0.0063  0.0000  0.0055  0.0000 </r>
        <r>  0.0634  0.0194  0.0024  0.0044  0.0056  0.0005  0.0000  0.0022  0.0000 </r>
        <r>  0.0520  0.0081  0.0164  0.0004  0.0059  0.0032  0.0000  0.0004  0.0000 </r>
       </set>
       <set comment="band 60">
        <r>  0.0669  0.0093  0.0045  0.0025  0.0002  0.0041  0.0000  0.0010  0.0001 </r>
        <r>  0.0207  0.0089  0.0022  0.0064  0.0021  0.0019  0.0000  0.0022  0.0001 </r>
        <r>  0.0743  0.0011  0.0115  0.0036  0.0018  0.0008  0.0000  0.0025  0.0000 </r>
        <r>  0.1107  0.0008  0.0016  0.0129  0.0028  0.0006  0.0000  0.0011  0.0000 </r>
        <r>  0.0592  0.0096  0.0152  0.0010  0.0035  0.0044  0.0000  0.0008  0.0000 </r>
        <r>  0.0398  0.0135  0.0017  0.0082  0.0064  0.0013  0.0000  0.0032  0.0000 </r>
        <r>  0.0110  0.0035  0.0084  0.0080  0.0034  0.0042  0.0000  0.0062  0.0000 </r>
        <r>  0.0358  0.0004  0.0008  0.0218  0.0013  0.0055  0.0000  0.0044  0.0000 </r>
       </set>
       <set comment="band 61">
        <r>  0.0007  0.0386  0.0142  0.0366  0.0013  0.0039  0.0051  0.0039  0.0005 </r>
        <r>  0.0010  0.0439  0.0244  0.0431  0.0026  0.0044  0.0032  0.0042  0.0005 </r>
        <r>  0.0000  0.0084  0.0008  0.0023  0.0001  0.0002  0.0005  0.0010  0.0118 </r>
        <r>  0.0001  0.0086  0.0022  0.0052  0.0002  0.0004  0.0001  0.0012  0.0118 </r>
        <r>  0.0000  0.0015  0.0010  0.0029  0.0007  0.0020  0.0002  0.0014  0.0206 </r>
        <r>  0.0000  0.0023  0.0001  0.0013  0.0001  0.0009  0.0009  0.0019  0.0206 </r>
        <r>  0.0005  0.0168  0.0087  0.0146  0.0059  0.0106  0.0055  0.0119  0.0008 </r>
        <r>  0.0004  0.0139  0.0066  0.0117  0.0042  0.0086  0.0088  0.0100  0.0008 </r>
       </set>
       <set comment="band 62">
        <r>  0.0005  0.0176  0.0377  0.0085  0.0041  0.0007  0.0064  0.0018  0.0014 </r>
        <r>  0.0003  0.0043  0.0273  0.0115  0.0027  0.0013  0.0082  0.0006  0.0014 </r>
        <r>  0.0001  0.0006  0.0192  0.0018  0.0022  0.0001  0.0110  0.0001  0.0005 </r>
        <r>  0.0008  0.0256  0.0488  0.0250  0.0049  0.0027  0.0042  0.0025  0.0005 </r>
        <r>  0.0005  0.0102  0.0175  0.0081  0.0127  0.0057  0.0073  0.0069  0.0008 </r>
        <r>  0.0001  0.0005  0.0055  0.0014  0.0044  0.0008  0.0192  0.0003  0.0008 </r>
        <r>  0.0002  0.0014  0.0103  0.0036  0.0075  0.0026  0.0143  0.0009  0.0024 </r>
        <r>  0.0003  0.0063  0.0115  0.0048  0.0089  0.0030  0.0111  0.0044  0.0024 </r>
       </set>
       <set comment="band 63">
        <r>  0.0001  0.0008  0.0051  0.0119  0.0005  0.0013  0.0011  0.0002  0.0107 </r>
        <r>  0.0001  0.0088  0.0052  0.0024  0.0006  0.0002  0.0012  0.0011  0.0107 </r>
        <r>  0.0012  0.0480  0.0370  0.0530  0.0036  0.0055  0.0010  0.0048  0.0003 </r>
        <r>  0.0004  0.0228  0.0060  0.0269  0.0008  0.0027  0.0082  0.0022  0.0003 </r>
        <r>  0.0002  0.0087  0.0018  0.0092  0.0011  0.0068  0.0143  0.0063  0.0004 </r>
        <r>  0.0007  0.0176  0.0145  0.0177  0.0101  0.0128  0.0018  0.0124  0.0004 </r>
        <r>  0.0000  0.0021  0.0014  0.0020  0.0011  0.0013  0.0021  0.0017  0.0186 </r>
        <r>  0.0000  0.0001  0.0021  0.0039  0.0015  0.0029  0.0019  0.0001  0.0187 </r>
       </set>
       <set comment="band 64">
        <r>  0.0000  0.0151  0.0070  0.0383  0.0007  0.0036  0.0015  0.0014  0.0071 </r>
        <r>  0.0000  0.0150  0.0070  0.0383  0.0007  0.0036  0.0015  0.0014  0.0071 </r>
        <r>  0.0000  0.0150  0.0070  0.0384  0.0007  0.0036  0.0015  0.0014  0.0071 </r>
        <r>  0.0000  0.0151  0.0070  0.0383  0.0007  0.0036  0.0015  0.0014  0.0071 </r>
        <r>  0.0000  0.0052  0.0024  0.0134  0.0018  0.0096  0.0026  0.0038  0.0122 </r>
        <r>  0.0000  0.0052  0.0024  0.0134  0.0018  0.0096  0.0026  0.0038  0.0122 </r>
        <r>  0.0000  0.0052  0.0024  0.0133  0.0018  0.0096  0.0026  0.0038  0.0122 </r>
        <r>  0.0000  0.0052  0.0024  0.0133  0.0018  0.0096  0.0026  0.0038  0.0122 </r>
       </set>
       <set comment="band 65">
        <r>  0.0000  0.0252  0.0333  0.0019  0.0032  0.0002  0.0071  0.0024  0.0015 </r>
        <r>  0.0000  0.0252  0.0332  0.0019  0.0031  0.0002  0.0071  0.0024  0.0015 </r>
        <r>  0.0000  0.0253  0.0331  0.0019  0.0031  0.0002  0.0071  0.0024  0.0015 </r>
        <r>  0.0000  0.0253  0.0332  0.0019  0.0031  0.0002  0.0071  0.0024  0.0015 </r>
        <r>  0.0000  0.0087  0.0116  0.0007  0.0083  0.0005  0.0122  0.0063  0.0026 </r>
        <r>  0.0000  0.0087  0.0115  0.0006  0.0084  0.0005  0.0122  0.0063  0.0026 </r>
        <r>  0.0000  0.0088  0.0116  0.0006  0.0084  0.0005  0.0122  0.0063  0.0026 </r>
        <r>  0.0000  0.0088  0.0116  0.0006  0.0083  0.0005  0.0122  0.0063  0.0025 </r>
       </set>
       <set comment="band 66">
        <r>  0.0000  0.0088  0.0526  0.0238  0.0052  0.0023  0.0115  0.0009  0.0009 </r>
        <r>  0.0000  0.0085  0.0527  0.0192  0.0052  0.0019  0.0115  0.0008  0.0002 </r>
        <r>  0.0000  0.0088  0.0063  0.0191  0.0006  0.0019  0.0014  0.0009  0.0036 </r>
        <r>  0.0000  0.0085  0.0063  0.0238  0.0006  0.0023  0.0014  0.0008  0.0042 </r>
        <r>  0.0000  0.0031  0.0023  0.0087  0.0016  0.0060  0.0024  0.0021  0.0073 </r>
        <r>  0.0000  0.0032  0.0023  0.0070  0.0016  0.0048  0.0024  0.0022  0.0062 </r>
        <r>  0.0000  0.0031  0.0191  0.0070  0.0133  0.0048  0.0199  0.0021  0.0003 </r>
        <r>  0.0000  0.0032  0.0192  0.0087  0.0133  0.0060  0.0198  0.0022  0.0016 </r>
       </set>
       <set comment="band 67">
        <r>  0.0000  0.0424  0.0053  0.0216  0.0005  0.0021  0.0012  0.0042  0.0089 </r>
        <r>  0.0000  0.0036  0.0053  0.0084  0.0005  0.0008  0.0012  0.0003  0.0014 </r>
        <r>  0.0000  0.0424  0.0379  0.0084  0.0037  0.0008  0.0083  0.0042  0.0046 </r>
        <r>  0.0000  0.0035  0.0379  0.0216  0.0037  0.0021  0.0083  0.0003  0.0009 </r>
        <r>  0.0000  0.0013  0.0138  0.0078  0.0096  0.0054  0.0143  0.0009  0.0015 </r>
        <r>  0.0000  0.0155  0.0136  0.0030  0.0096  0.0021  0.0143  0.0107  0.0080 </r>
        <r>  0.0000  0.0013  0.0019  0.0031  0.0013  0.0021  0.0020  0.0009  0.0023 </r>
        <r>  0.0000  0.0154  0.0019  0.0080  0.0014  0.0054  0.0020  0.0107  0.0154 </r>
       </set>
       <set comment="band 68">
        <r>  0.0000  0.0085  0.0016  0.0142  0.0002  0.0014  0.0003  0.0008  0.0032 </r>
        <r>  0.0000  0.0477  0.0016  0.0320  0.0002  0.0031  0.0003  0.0047  0.0114 </r>
        <r>  0.0000  0.0084  0.0153  0.0320  0.0015  0.0032  0.0034  0.0008  0.0048 </r>
        <r>  0.0000  0.0474  0.0154  0.0142  0.0015  0.0014  0.0034  0.0047  0.0079 </r>
        <r>  0.0000  0.0172  0.0056  0.0053  0.0039  0.0036  0.0058  0.0120  0.0136 </r>
        <r>  0.0000  0.0030  0.0056  0.0118  0.0039  0.0081  0.0058  0.0021  0.0082 </r>
        <r>  0.0000  0.0173  0.0005  0.0117  0.0004  0.0081  0.0006  0.0120  0.0199 </r>
        <r>  0.0000  0.0031  0.0006  0.0052  0.0004  0.0036  0.0006  0.0021  0.0055 </r>
       </set>
       <set comment="band 69">
        <r>  0.0024  0.0032  0.0042  0.0038  0.0026  0.0024  0.0000  0.0019  0.0000 </r>
        <r>  0.0026  0.0039  0.0063  0.0030  0.0038  0.0019  0.0000  0.0024  0.0000 </r>
        <r>  0.0021  0.0058  0.0036  0.0040  0.0023  0.0026  0.0000  0.0037  0.0000 </r>
        <r>  0.0022  0.0036  0.0027  0.0053  0.0019  0.0037  0.0000  0.0026  0.0000 </r>
        <r>  0.0005  0.0094  0.0120  0.0047  0.0007  0.0004  0.0000  0.0006  0.0000 </r>
        <r>  0.0005  0.0047  0.0099  0.0100  0.0007  0.0007  0.0000  0.0005  0.0000 </r>
        <r>  0.0004  0.0101  0.0049  0.0126  0.0005  0.0009  0.0000  0.0007  0.0000 </r>
        <r>  0.0005  0.0124  0.0098  0.0099  0.0007  0.0007  0.0000  0.0008  0.0000 </r>
       </set>
       <set comment="band 70">
        <r>  0.0002  0.0032  0.0109  0.0031  0.0049  0.0027  0.0001  0.0027  0.0001 </r>
        <r>  0.0021  0.0028  0.0005  0.0134  0.0004  0.0033  0.0000  0.0025  0.0001 </r>
        <r>  0.0014  0.0036  0.0111  0.0022  0.0033  0.0042  0.0001  0.0006  0.0000 </r>
        <r>  0.0013  0.0114  0.0007  0.0046  0.0024  0.0008  0.0001  0.0049  0.0000 </r>
        <r>  0.0002  0.0152  0.0160  0.0013  0.0019  0.0003  0.0000  0.0005  0.0000 </r>
        <r>  0.0002  0.0014  0.0064  0.0249  0.0001  0.0026  0.0000  0.0001  0.0000 </r>
        <r>  0.0003  0.0144  0.0060  0.0053  0.0013  0.0000  0.0000  0.0014  0.0000 </r>
        <r>  0.0000  0.0117  0.0156  0.0131  0.0007  0.0012  0.0001  0.0009  0.0000 </r>
       </set>
       <set comment="band 71">
        <r>  0.0011  0.0094  0.0056  0.0021  0.0027  0.0028  0.0000  0.0036  0.0001 </r>
        <r>  0.0010  0.0121  0.0029  0.0018  0.0016  0.0029  0.0000  0.0036  0.0001 </r>
        <r>  0.0014  0.0026  0.0045  0.0097  0.0030  0.0029  0.0000  0.0017  0.0001 </r>
        <r>  0.0013  0.0016  0.0073  0.0078  0.0032  0.0021  0.0000  0.0024  0.0001 </r>
        <r>  0.0003  0.0160  0.0115  0.0039  0.0005  0.0000  0.0000  0.0023  0.0000 </r>
        <r>  0.0002  0.0107  0.0139  0.0068  0.0010  0.0001  0.0000  0.0017  0.0001 </r>
        <r>  0.0002  0.0087  0.0077  0.0172  0.0006  0.0015  0.0000  0.0006  0.0001 </r>
        <r>  0.0001  0.0113  0.0097  0.0160  0.0005  0.0015  0.0000  0.0009  0.0001 </r>
       </set>
       <set comment="band 72">
        <r>  0.0035  0.0047  0.0006  0.0115  0.0004  0.0028  0.0000  0.0026  0.0000 </r>
        <r>  0.0012  0.0021  0.0112  0.0021  0.0048  0.0025  0.0001  0.0021  0.0000 </r>
        <r>  0.0023  0.0089  0.0015  0.0050  0.0021  0.0010  0.0001  0.0045  0.0001 </r>
        <r>  0.0026  0.0040  0.0103  0.0030  0.0033  0.0041  0.0001  0.0009  0.0001 </r>
        <r>  0.0001  0.0009  0.0041  0.0232  0.0003  0.0031  0.0001  0.0001  0.0001 </r>
        <r>  0.0001  0.0166  0.0113  0.0003  0.0015  0.0001  0.0001  0.0015  0.0001 </r>
        <r>  0.0001  0.0079  0.0148  0.0092  0.0013  0.0009  0.0002  0.0007  0.0000 </r>
        <r>  0.0010  0.0087  0.0051  0.0026  0.0015  0.0000  0.0000  0.0008  0.0000 </r>
       </set>
      </set>
     </set>
    </set>
   </array>
  </projected>
 </calculation>
 <structure name="finalpos" >
  <crystal>
   <varray name="basis" >
    <v>       5.60293374       0.00000000       0.00000000 </v>
    <v>       0.00000000       5.60293374       0.00000000 </v>
    <v>       0.00000000       0.00000000       5.60293374 </v>
   </varray>
   <i name="volume">    175.89215089 </i>
   <varray name="rec_basis" >
    <v>       0.17847793       0.00000000       0.00000000 </v>
    <v>       0.00000000       0.17847793       0.00000000 </v>
    <v>       0.00000000       0.00000000       0.17847793 </v>
   </varray>
  </crystal>
  <varray name="positions" >
   <v>       0.00000000       0.00000000       0.00000000 </v>
   <v>       0.50000000       0.50000000       0.00000000 </v>
   <v>       0.50000000       0.00000000       0.50000000 </v>
   <v>       0.00000000       0.50000000       0.50000000 </v>
   <v>       0.75000000       0.25000000       0.25000000 </v>
   <v>       0.25000000       0.75000000       0.25000000 </v>
   <v>       0.25000000       0.25000000       0.75000000 </v>
   <v>       0.75000000       0.75000000       0.75000000 </v>
  </varray>
 </structure>
</modeling>
