<?xml version="1.0" encoding="ISO-8859-1"?>
<modeling>
 <generator>
  <i name="program" type="string">vasp </i>
  <i name="version" type="string">5.4.4.18Apr17-6-g9f103f2a35  </i>
  <i name="subversion" type="string">(build Jul 30 2020 14:31:59) complex            parallel </i>
  <i name="platform" type="string">LinuxIFC </i>
  <i name="date" type="string">2022 03 07 </i>
  <i name="time" type="string">22:31:57 </i>
 </generator>
 <incar>
  <i type="string" name="SYSTEM"> Generic Input</i>
  <i type="int" name="ISTART">     1</i>
  <i type="string" name="PREC">accurate  ! precision level</i>
  <i type="int" name="IALGO">    53</i>
  <i type="string" name="ALGO"> All      ! SCF Combo</i>
  <i type="int" name="ISPIN">     2</i>
  <i type="int" name="INIWAV">     1</i>
  <i type="int" name="NELM">   200</i>
  <i type="int" name="NELMIN">     2</i>
  <i type="int" name="IBRION">     1</i>
  <i name="EDIFF">      0.00000100</i>
  <i name="EDIFFG">     -0.01000000</i>
  <i type="int" name="NSW">   100</i>
  <i type="int" name="ISIF">     2</i>
  <i type="int" name="IWAVPR">    11</i>
  <i type="int" name="ISYM">     3</i>
  <i type="int" name="NBLOCK">     1</i>
  <i type="int" name="KBLOCK">    40</i>
  <i name="ENCUT">    620.00000000</i>
  <i name="NUPDOWN">      2.00000000</i>
  <i type="string" name="LREAL"> auto      ! Projection operators: autom</i>
  <i name="TIME">      0.30000000</i>
  <i type="int" name="ISMEAR">     0</i>
  <i name="SIGMA">      0.02000000</i>
  <i type="int" name="NWRITE">     2</i>
  <i type="logical" name="LASPH"> T  </i>
  <i type="int" name="ICORELEVEL">     1</i>
  <v type="int" name="KPOINT_BSE">    -1     0     0     0</v>
  <i type="int" name="NELM">   200</i>
  <i type="logical" name="LHFCALC"> T  </i>
  <i type="string" name="GGA"> PE        ! PBEsol exchange-correlation</i>
  <i name="HFSCREEN">      0.20786986</i>
  <i name="AEXX">      0.25000000</i>
  <i type="string" name="PRECFOCK">fast</i>
  <i type="logical" name="LASPH"> T  </i>
 </incar>
 <structure name="primitive_cell" >
  <crystal>
   <varray name="basis" >
    <v>      30.00000000       0.00000000       0.00000000 </v>
    <v>       0.00000000      30.00000000       0.00000000 </v>
    <v>       0.00000000       0.00000000      30.00000000 </v>
   </varray>
   <i name="volume">  27000.00000000 </i>
   <varray name="rec_basis" >
    <v>       0.03333333       0.00000000       0.00000000 </v>
    <v>       0.00000000       0.03333333       0.00000000 </v>
    <v>       0.00000000       0.00000000       0.03333333 </v>
   </varray>
  </crystal>
  <varray name="positions" >
   <v>       0.00000000       0.00000000       0.00000000 </v>
   <v>       0.00000000       0.00000000       0.04066667 </v>
  </varray>
 </structure>
 <varray name="primitive_index" >
  <v type="int" >        1 </v>
  <v type="int" >        2 </v>
 </varray>
 <kpoints>
  <generation param="Gamma">
   <v type="int" name="divisions">       2        2        2 </v>
   <v name="usershift">      0.00000000       0.00000000       0.00000000 </v>
   <v name="genvec1">      0.50000000       0.00000000       0.00000000 </v>
   <v name="genvec2">      0.00000000       0.50000000       0.00000000 </v>
   <v name="genvec3">      0.00000000       0.00000000       0.50000000 </v>
   <v name="shift">      0.00000000       0.00000000       0.00000000 </v>
  </generation>
  <varray name="kpointlist" >
   <v>       0.00000000       0.00000000       0.00000000 </v>
   <v>       0.50000000       0.00000000       0.00000000 </v>
   <v>       0.50000000       0.50000000       0.00000000 </v>
   <v>       0.00000000       0.00000000       0.50000000 </v>
   <v>       0.50000000       0.00000000       0.50000000 </v>
   <v>       0.50000000       0.50000000       0.50000000 </v>
  </varray>
  <varray name="weights" >
   <v>       0.12500000 </v>
   <v>       0.25000000 </v>
   <v>       0.12500000 </v>
   <v>       0.12500000 </v>
   <v>       0.25000000 </v>
   <v>       0.12500000 </v>
  </varray>
 </kpoints>
 <parameters>
  <separator name="general" >
   <i type="string" name="SYSTEM">Generic Input</i>
   <i type="logical" name="LCOMPAT"> F  </i>
  </separator>
  <separator name="electronic" >
   <i type="string" name="PREC">accura</i>
   <i name="ENMAX">    620.00000000</i>
   <i name="ENAUG">    605.39200000</i>
   <i name="EDIFF">      0.00000100</i>
   <i type="int" name="IALGO">    58</i>
   <i type="int" name="IWAVPR">    11</i>
   <i type="int" name="NBANDS">    16</i>
   <i name="NELECT">     12.00000000</i>
   <i type="int" name="TURBO">     0</i>
   <i type="int" name="IRESTART">     0</i>
   <i type="int" name="NREBOOT">     0</i>
   <i type="int" name="NMIN">     0</i>
   <i name="EREF">      0.00000000</i>
   <separator name="electronic smearing" >
    <i type="int" name="ISMEAR">     0</i>
    <i name="SIGMA">      0.02000000</i>
    <i name="KSPACING">      0.50000000</i>
    <i type="logical" name="KGAMMA"> T  </i>
   </separator>
   <separator name="electronic projectors" >
    <i type="logical" name="LREAL"> T  </i>
    <v name="ROPT">     -0.00025000</v>
    <i type="int" name="LMAXPAW">  -100</i>
    <i type="int" name="LMAXMIX">     2</i>
    <i type="logical" name="NLSPLINE"> F  </i>
   </separator>
   <separator name="electronic startup" >
    <i type="int" name="ISTART">     0</i>
    <i type="int" name="ICHARG">     2</i>
    <i type="int" name="INIWAV">     1</i>
   </separator>
   <separator name="electronic spin" >
    <i type="int" name="ISPIN">     2</i>
    <i type="logical" name="LNONCOLLINEAR"> F  </i>
    <v name="MAGMOM">      1.00000000      1.00000000</v>
    <i name="NUPDOWN">      2.00000000</i>
    <i type="logical" name="LSORBIT"> F  </i>
    <v name="SAXIS">      0.00000000      0.00000000      1.00000000</v>
    <i type="logical" name="LSPIRAL"> F  </i>
    <v name="QSPIRAL">      0.00000000      0.00000000      0.00000000</v>
    <i type="logical" name="LZEROZ"> F  </i>
   </separator>
   <separator name="electronic exchange-correlation" >
    <i type="logical" name="LASPH"> T  </i>
    <i type="logical" name="LMETAGGA"> F  </i>
   </separator>
   <separator name="electronic convergence" >
    <i type="int" name="NELM">   200</i>
    <i type="int" name="NELMDL">     0</i>
    <i type="int" name="NELMIN">     2</i>
    <i name="ENINI">    620.00000000</i>
    <separator name="electronic convergence detail" >
     <i type="logical" name="LDIAG"> T  </i>
     <i type="logical" name="LSUBROT"> F  </i>
     <i name="WEIMIN">      0.00100000</i>
     <i name="EBREAK">      0.00000002</i>
     <i name="DEPER">      0.30000000</i>
     <i type="int" name="NRMM">     4</i>
     <i name="TIME">      0.30000000</i>
    </separator>
   </separator>
   <separator name="electronic mixer" >
    <i name="AMIX">      0.40000000</i>
    <i name="BMIX">      1.00000000</i>
    <i name="AMIN">      0.10000000</i>
    <i name="AMIX_MAG">      1.60000000</i>
    <i name="BMIX_MAG">      1.00000000</i>
    <separator name="electronic mixer details" >
     <i type="int" name="IMIX">     4</i>
     <i type="logical" name="MIXFIRST"> F  </i>
     <i type="int" name="MAXMIX">   -45</i>
     <i name="WC">    100.00000000</i>
     <i type="int" name="INIMIX">     1</i>
     <i type="int" name="MIXPRE">     1</i>
     <i type="int" name="MREMOVE">     5</i>
    </separator>
   </separator>
   <separator name="electronic dipolcorrection" >
    <i type="logical" name="LDIPOL"> F  </i>
    <i type="logical" name="LMONO"> F  </i>
    <i type="int" name="IDIPOL">     0</i>
    <i name="EPSILON">      1.00000000</i>
    <v name="DIPOL">   -100.00000000   -100.00000000   -100.00000000</v>
    <i name="EFIELD">      0.00000000</i>
   </separator>
  </separator>
  <separator name="grids" >
   <i type="int" name="NGX">   250</i>
   <i type="int" name="NGY">   250</i>
   <i type="int" name="NGZ">   250</i>
   <i type="int" name="NGXF">   500</i>
   <i type="int" name="NGYF">   500</i>
   <i type="int" name="NGZF">   500</i>
   <i type="logical" name="ADDGRID"> F  </i>
  </separator>
  <separator name="ionic" >
   <i type="int" name="NSW">    80</i>
   <i type="int" name="IBRION">     1</i>
   <i type="int" name="MDALGO">     0</i>
   <i type="int" name="ISIF">     2</i>
   <i name="PSTRESS">      0.00000000</i>
   <i name="EDIFFG">     -0.01000000</i>
   <i type="int" name="NFREE">     0</i>
   <i name="POTIM">      0.50000000</i>
   <i name="SMASS">     -3.00000000</i>
   <i name="SCALEE">      1.00000000</i>
  </separator>
  <separator name="ionic md" >
   <i name="TEBEG">      0.00010000</i>
   <i name="TEEND">      0.00010000</i>
   <i type="int" name="NBLOCK">     1</i>
   <i type="int" name="KBLOCK">    40</i>
   <i type="int" name="NPACO">   256</i>
   <i name="APACO">     16.00000000</i>
  </separator>
  <separator name="symmetry" >
   <i type="int" name="ISYM">     3</i>
   <i name="SYMPREC">      0.00001000</i>
  </separator>
  <separator name="dos" >
   <i type="int" name="LORBIT">     0</i>
   <v name="RWIGS">     -1.00000000</v>
   <i type="int" name="NEDOS">   301</i>
   <i name="EMIN">     10.00000000</i>
   <i name="EMAX">    -10.00000000</i>
   <i name="EFERMI">      0.00000000</i>
  </separator>
  <separator name="writing" >
   <i type="int" name="NWRITE">     2</i>
   <i type="logical" name="LWAVE"> T  </i>
   <i type="logical" name="LDOWNSAMPLE"> F  </i>
   <i type="logical" name="LCHARG"> T  </i>
   <i type="logical" name="LPARD"> F  </i>
   <i type="logical" name="LVTOT"> F  </i>
   <i type="logical" name="LVHAR"> F  </i>
   <i type="logical" name="LELF"> F  </i>
   <i type="logical" name="LOPTICS"> F  </i>
   <v name="STM">      0.00000000      0.00000000      0.00000000      0.00000000      0.00000000      0.00000000      0.00000000</v>
  </separator>
  <separator name="performance" >
   <i type="int" name="NPAR">     8</i>
   <i type="int" name="NSIM">     4</i>
   <i type="int" name="NBLK">    -1</i>
   <i type="logical" name="LPLANE"> T  </i>
   <i type="logical" name="LSCALAPACK"> T  </i>
   <i type="logical" name="LSCAAWARE"> F  </i>
   <i type="logical" name="LSCALU"> F  </i>
   <i type="logical" name="LASYNC"> F  </i>
   <i type="logical" name="LORBITALREAL"> F  </i>
  </separator>
  <separator name="miscellaneous" >
   <i type="int" name="IDIOT">     3</i>
   <i type="int" name="ISPECIAL">     0</i>
   <i type="logical" name="LMUSIC"> F  </i>
   <v name="POMASS">     16.00000000</v>
   <v name="DARWINR">      0.00000000</v>
   <v name="DARWINV">      1.00000000</v>
   <i type="logical" name="LCORR"> T  </i>
  </separator>
  <i type="logical" name="GGA_COMPAT"> T  </i>
  <i type="logical" name="LBERRY"> F  </i>
  <i type="int" name="ICORELEVEL">     1</i>
  <i type="int" name="CLNT">     1</i>
  <i type="int" name="CLN">     1</i>
  <i type="int" name="CLL">     0</i>
  <i name="CLZ">      0.00000000</i>
  <i type="logical" name="LDAU"> F  </i>
  <i type="int" name="I_CONSTRAINED_M">     0</i>
  <separator name="electronic exchange-correlation" >
   <i type="string" name="GGA">PE</i>
   <i type="int" name="VOSKOWN">     0</i>
   <i type="logical" name="LHFCALC"> T  </i>
   <i type="string" name="PRECFOCK">fast</i>
   <i type="logical" name="LSYMGRAD"> F  </i>
   <i type="logical" name="LHFONE"> F  </i>
   <i type="logical" name="LRHFCALC"> F  </i>
   <i type="logical" name="LTHOMAS"> F  </i>
   <i type="logical" name="LMODELHF"> F  </i>
   <i name="ENCUT4O">     -1.00000000</i>
   <i type="int" name="EXXOEP">     0</i>
   <i type="int" name="FOURORBIT">     0</i>
   <i name="AEXX">      0.25000000</i>
   <i name="HFALPHA">     -1.00000000</i>
   <i name="MCALPHA">      0.00000000</i>
   <i name="ALDAX">      0.75000000</i>
   <i name="AGGAX">      0.75000000</i>
   <i name="ALDAC">      1.00000000</i>
   <i name="AGGAC">      1.00000000</i>
   <i type="int" name="NKREDX">     1</i>
   <i type="int" name="NKREDY">     1</i>
   <i type="int" name="NKREDZ">     1</i>
   <i type="logical" name="SHIFTRED"> F  </i>
   <i type="logical" name="ODDONLY"> F  </i>
   <i type="logical" name="EVENONLY"> F  </i>
   <i type="int" name="LMAXFOCK">     4</i>
   <i type="int" name="NMAXFOCKAE">     1</i>
   <i type="logical" name="LFOCKAEDFT"> F  </i>
   <i name="HFSCREEN">      0.20000000</i>
   <i name="HFSCREENC">      0.20000000</i>
   <i type="int" name="NBANDSGWLOW">     1</i>
  </separator>
  <separator name="vdW DFT" >
   <i type="logical" name="LUSE_VDW"> F  </i>
   <i name="Zab_VDW">     -0.84910000</i>
   <i name="PARAM1">      0.12340000</i>
   <i name="PARAM2">      1.00000000</i>
   <i name="PARAM3">      0.00000000</i>
  </separator>
  <separator name="model GW" >
   <i type="int" name="MODEL_GW">     0</i>
   <i name="MODEL_EPS0">   8100.00000000</i>
   <i name="MODEL_ALPHA">      1.00000000</i>
  </separator>
  <separator name="linear response parameters" >
   <i type="logical" name="LEPSILON"> F  </i>
   <i type="logical" name="LRPA"> F  </i>
   <i type="logical" name="LNABLA"> F  </i>
   <i type="logical" name="LVEL"> F  </i>
   <i type="int" name="KINTER">     0</i>
   <i name="CSHIFT">      0.10000000</i>
   <i name="OMEGAMAX">     -1.00000000</i>
   <i name="DEG_THRESHOLD">      0.00200000</i>
   <i name="RTIME">     -0.10000000</i>
   <i name="WPLASMAI">      0.00000000</i>
   <v name="DFIELD">      0.00000000      0.00000000      0.00000000</v>
   <v name="WPLASMA">      0.00000000      0.00000000      0.00000000      0.00000000      0.00000000      0.00000000      0.00000000      0.00000000      0.00000000</v>
  </separator>
  <separator name="orbital magnetization" >
   <i type="logical" name="NUCIND"> F  </i>
   <v name="MAGPOS">      0.00000000      0.00000000      0.00000000</v>
   <i type="logical" name="LNICSALL"> T  </i>
   <i type="logical" name="ORBITALMAG"> F  </i>
   <i type="logical" name="LMAGBLOCH"> F  </i>
   <i type="logical" name="LCHIMAG"> F  </i>
   <i type="logical" name="LGAUGE"> T  </i>
   <i type="int" name="MAGATOM">     0</i>
   <v name="MAGDIPOL">      0.00000000      0.00000000      0.00000000</v>
   <v name="AVECCONST">      0.00000000      0.00000000      0.00000000</v>
  </separator>
  <separator name="response functions" >
   <i type="logical" name="LADDER"> F  </i>
   <i type="logical" name="LRPAFORCE"> F  </i>
   <i type="logical" name="LFXC"> F  </i>
   <i type="logical" name="LHARTREE"> T  </i>
   <i type="int" name="IBSE">     0</i>
   <v type="int" name="KPOINT">    -1     0     0     0</v>
   <i type="logical" name="LTCTE"> F  </i>
   <i type="logical" name="LTETE"> F  </i>
   <i type="logical" name="LTRIPLET"> F  </i>
   <i type="logical" name="LFXCEPS"> F  </i>
   <i type="logical" name="LFXHEG"> F  </i>
   <i type="int" name="NATURALO">     2</i>
   <i type="logical" name="L2ORDER"> F  </i>
   <i type="logical" name="LMP2LT"> F  </i>
   <i type="logical" name="LUSEW"> F  </i>
   <i name="ENCUTGW">     -2.00000000</i>
   <i name="ENCUTGWSOFT">     -2.00000000</i>
   <i name="ENCUTLF">     -1.00000000</i>
   <i type="int" name="LMAXMP2">    -1</i>
   <i name="SCISSOR">      0.00000000</i>
   <i type="int" name="NOMEGA">     0</i>
   <i type="int" name="NOMEGAR">     0</i>
   <i type="int" name="NBANDSGW">    -1</i>
   <i type="int" name="NBANDSO">    -1</i>
   <i type="int" name="NBANDSV">    -1</i>
   <i type="int" name="NELM">   200</i>
   <i type="int" name="NELMHF">     1</i>
   <i type="int" name="DIM">     3</i>
   <i type="int" name="ANTIRES">     0</i>
   <i name="OMEGAMAX">    -30.00000000</i>
   <i name="OMEGAMIN">    -30.00000000</i>
   <i name="OMEGATL">   -200.00000000</i>
   <i type="int" name="OMEGAGRID">   140</i>
   <i name="CSHIFT">     -0.10000000</i>
   <i type="logical" name="SELFENERGY"> F  </i>
   <i type="logical" name="LSPECTRAL"> F  </i>
   <i type="logical" name="LSPECTRALGW"> F  </i>
   <i type="logical" name="LSINGLES"> F  </i>
   <i type="logical" name="LFERMIGW"> F  </i>
   <i type="logical" name="ODDONLYGW"> F  </i>
   <i type="logical" name="EVENONLYGW"> F  </i>
   <i type="int" name="NKREDLFX">     1</i>
   <i type="int" name="NKREDLFY">     1</i>
   <i type="int" name="NKREDLFZ">     1</i>
   <i type="int" name="MAXMEM">  2800</i>
   <i type="int" name="TELESCOPE">     0</i>
   <i type="int" name="TAUPAR">     1</i>
   <i type="int" name="OMEGAPAR">    -1</i>
   <i name="LAMBDA">      1.00000000</i>
  </separator>
  <separator name="External order field" >
   <i name="OFIELD_KAPPA">      0.00000000</i>
   <v name="OFIELD_K">      0.00000000      0.00000000      0.00000000</v>
   <i name="OFIELD_Q6_NEAR">      0.00000000</i>
   <i name="OFIELD_Q6_FAR">      0.00000000</i>
   <i name="OFIELD_A">      0.00000000</i>
  </separator>
 </parameters>
 <atominfo>
  <atoms>       2 </atoms>
  <types>       1 </types>
  <array name="atoms" >
   <dimension dim="1">ion</dimension>
   <field type="string">element</field>
   <field type="int">atomtype</field>
   <set>
    <rc><c>O </c><c>   1</c></rc>
    <rc><c>O </c><c>   1</c></rc>
   </set>
  </array>
  <array name="atomtypes" >
   <dimension dim="1">type</dimension>
   <field type="int">atomspertype</field>
   <field type="string">element</field>
   <field>mass</field>
   <field>valence</field>
   <field type="string">pseudopotential</field>
   <set>
    <rc><c>   2</c><c>O </c><c>     16.00000000</c><c>      6.00000000</c><c>  PAW_PBE O 08Apr2002                   </c></rc>
   </set>
  </array>
 </atominfo>
 <structure name="initialpos" >
  <crystal>
   <varray name="basis" >
    <v>      30.00000000       0.00000000       0.00000000 </v>
    <v>       0.00000000      30.00000000       0.00000000 </v>
    <v>       0.00000000       0.00000000      30.00000000 </v>
   </varray>
   <i name="volume">  27000.00000000 </i>
   <varray name="rec_basis" >
    <v>       0.03333333       0.00000000       0.00000000 </v>
    <v>       0.00000000       0.03333333       0.00000000 </v>
    <v>       0.00000000       0.00000000       0.03333333 </v>
   </varray>
  </crystal>
  <varray name="positions" >
   <v>       0.00000000       0.00000000       0.00000000 </v>
   <v>       0.00000000       0.00000000       0.04066667 </v>
  </varray>
 </structure>
 <calculation>
  <scstep>
   <time name="total">   22.83   22.93</time>
   <energy>
    <i name="alphaZ">      0.02058585 </i>
    <i name="ewald">    326.91619755 </i>
    <i name="hartreedc">  -1051.92179249 </i>
    <i name="XCdc">     41.94738787 </i>
    <i name="pawpsdc">    705.03783242 </i>
    <i name="pawaedc">   -706.89911971 </i>
    <i name="eentropy">     -0.00675512 </i>
    <i name="bandstr">    -65.48492555 </i>
    <i name="atom">    858.90217520 </i>
    <i name="e_fr_energy">    108.51158601 </i>
    <i name="e_wo_entrp">    108.51834113 </i>
    <i name="e_0_energy">    108.51496357 </i>
   </energy>
  </scstep>
  <scstep>
   <time name="total">   20.25   20.31</time>
   <energy>
    <i name="e_fr_energy">     60.44702903 </i>
    <i name="e_wo_entrp">     60.45297775 </i>
    <i name="e_0_energy">     60.45000339 </i>
   </energy>
  </scstep>
  <scstep>
   <time name="total">   19.06   19.11</time>
   <energy>
    <i name="e_fr_energy">     32.77582753 </i>
    <i name="e_wo_entrp">     32.78251923 </i>
    <i name="e_0_energy">     32.77917338 </i>
   </energy>
  </scstep>
  <scstep>
   <time name="total">   19.19   19.24</time>
   <energy>
    <i name="e_fr_energy">     27.06392892 </i>
    <i name="e_wo_entrp">     27.06837619 </i>
    <i name="e_0_energy">     27.06615256 </i>
   </energy>
  </scstep>
  <scstep>
   <time name="total">   23.46   23.53</time>
   <energy>
    <i name="e_fr_energy">     22.77783606 </i>
    <i name="e_wo_entrp">     22.77783606 </i>
    <i name="e_0_energy">     22.77783606 </i>
   </energy>
  </scstep>
  <scstep>
   <time name="total">  149.23  149.62</time>
   <energy>
    <i name="e_fr_energy">     -8.79521485 </i>
    <i name="e_wo_entrp">     -8.79521485 </i>
    <i name="e_0_energy">     -8.79521485 </i>
   </energy>
  </scstep>
  <scstep>
   <time name="total">  149.58  149.97</time>
   <energy>
    <i name="e_fr_energy">    -12.94354544 </i>
    <i name="e_wo_entrp">    -12.94354544 </i>
    <i name="e_0_energy">    -12.94354544 </i>
   </energy>
  </scstep>
  <scstep>
   <time name="total">  149.68  150.07</time>
   <energy>
    <i name="e_fr_energy">    -13.72246623 </i>
    <i name="e_wo_entrp">    -13.72246623 </i>
    <i name="e_0_energy">    -13.72246623 </i>
   </energy>
  </scstep>
  <scstep>
   <time name="total">  148.36  148.75</time>
   <energy>
    <i name="e_fr_energy">    -13.92047987 </i>
    <i name="e_wo_entrp">    -13.92047987 </i>
    <i name="e_0_energy">    -13.92047987 </i>
   </energy>
  </scstep>
  <scstep>
   <time name="total">  146.36  146.74</time>
   <energy>
    <i name="e_fr_energy">    -13.97720828 </i>
    <i name="e_wo_entrp">    -13.97720828 </i>
    <i name="e_0_energy">    -13.97720828 </i>
   </energy>
  </scstep>
  <scstep>
   <time name="total">  147.06  147.45</time>
   <energy>
    <i name="e_fr_energy">    -13.99845978 </i>
    <i name="e_wo_entrp">    -13.99845978 </i>
    <i name="e_0_energy">    -13.99845978 </i>
   </energy>
  </scstep>
  <scstep>
   <time name="total">  145.07  145.44</time>
   <energy>
    <i name="e_fr_energy">    -14.00462719 </i>
    <i name="e_wo_entrp">    -14.00462719 </i>
    <i name="e_0_energy">    -14.00462719 </i>
   </energy>
  </scstep>
  <scstep>
   <time name="total">  143.74  144.12</time>
   <energy>
    <i name="e_fr_energy">    -14.00672792 </i>
    <i name="e_wo_entrp">    -14.00672792 </i>
    <i name="e_0_energy">    -14.00672792 </i>
   </energy>
  </scstep>
  <scstep>
   <time name="total">  143.57  143.94</time>
   <energy>
    <i name="e_fr_energy">    -14.00770640 </i>
    <i name="e_wo_entrp">    -14.00770640 </i>
    <i name="e_0_energy">    -14.00770640 </i>
   </energy>
  </scstep>
  <scstep>
   <time name="total">  143.13  143.50</time>
   <energy>
    <i name="e_fr_energy">    -14.00818170 </i>
    <i name="e_wo_entrp">    -14.00818170 </i>
    <i name="e_0_energy">    -14.00818170 </i>
   </energy>
  </scstep>
  <scstep>
   <time name="total">  143.70  144.09</time>
   <energy>
    <i name="e_fr_energy">    -14.00839160 </i>
    <i name="e_wo_entrp">    -14.00839160 </i>
    <i name="e_0_energy">    -14.00839160 </i>
   </energy>
  </scstep>
  <scstep>
   <time name="total">  143.78  144.15</time>
   <energy>
    <i name="e_fr_energy">    -14.00847708 </i>
    <i name="e_wo_entrp">    -14.00847708 </i>
    <i name="e_0_energy">    -14.00847708 </i>
   </energy>
  </scstep>
  <scstep>
   <time name="total">  143.18  143.56</time>
   <energy>
    <i name="e_fr_energy">    -14.00851100 </i>
    <i name="e_wo_entrp">    -14.00851100 </i>
    <i name="e_0_energy">    -14.00851100 </i>
   </energy>
  </scstep>
  <scstep>
   <time name="total">  143.30  143.68</time>
   <energy>
    <i name="e_fr_energy">    -14.00852610 </i>
    <i name="e_wo_entrp">    -14.00852610 </i>
    <i name="e_0_energy">    -14.00852610 </i>
   </energy>
  </scstep>
  <scstep>
   <time name="total">  143.08  143.45</time>
   <energy>
    <i name="e_fr_energy">    -14.00853363 </i>
    <i name="e_wo_entrp">    -14.00853363 </i>
    <i name="e_0_energy">    -14.00853363 </i>
   </energy>
  </scstep>
  <scstep>
   <time name="total">  143.24  143.62</time>
   <energy>
    <i name="e_fr_energy">    -14.00853737 </i>
    <i name="e_wo_entrp">    -14.00853737 </i>
    <i name="e_0_energy">    -14.00853737 </i>
   </energy>
  </scstep>
  <scstep>
   <time name="total">  143.78  144.15</time>
   <energy>
    <i name="e_fr_energy">    -14.00853926 </i>
    <i name="e_wo_entrp">    -14.00853926 </i>
    <i name="e_0_energy">    -14.00853926 </i>
   </energy>
  </scstep>
  <scstep>
   <time name="total">  207.12  207.69</time>
   <energy>
    <i name="alphaZ">      0.02058585 </i>
    <i name="ewald">    326.91619755 </i>
    <i name="hartreedc">  -1060.23182299 </i>
    <i name="XCdc">     42.53150865 </i>
    <i name="pawpsdc">    913.52112278 </i>
    <i name="pawaedc">   -915.18669424 </i>
    <i name="eentropy">     -0.00000000 </i>
    <i name="bandstr">   -217.51147939 </i>
    <i name="atom">    858.90217520 </i>
    <i name="e_fr_energy">    -14.00854016 </i>
    <i name="e_wo_entrp">    -14.00854016 </i>
    <i name="e_0_energy">    -14.00854016 </i>
   </energy>
  </scstep>
  <structure>
   <crystal>
    <varray name="basis" >
     <v>      30.00000000       0.00000000       0.00000000 </v>
     <v>       0.00000000      30.00000000       0.00000000 </v>
     <v>       0.00000000       0.00000000      30.00000000 </v>
    </varray>
    <i name="volume">  27000.00000000 </i>
    <varray name="rec_basis" >
     <v>       0.03333333       0.00000000       0.00000000 </v>
     <v>       0.00000000       0.03333333       0.00000000 </v>
     <v>       0.00000000       0.00000000       0.03333333 </v>
    </varray>
   </crystal>
   <varray name="positions" >
    <v>       0.00000000       0.00000000       0.00000000 </v>
    <v>       0.00000000       0.00000000       0.04066667 </v>
   </varray>
  </structure>
  <varray name="forces" >
   <v>      -0.00000000       0.00000000       0.87713488 </v>
   <v>       0.00000000      -0.00000000      -0.87713488 </v>
  </varray>
  <varray name="stress" >
   <v>      -0.00369282       0.00000000       0.00000000 </v>
   <v>       0.00000000      -0.00369282       0.00000000 </v>
   <v>       0.00000000       0.00000000      -0.06955757 </v>
  </varray>
  <energy>
   <i name="e_fr_energy">    -14.00854016 </i>
   <i name="e_wo_entrp">    -14.00854016 </i>
   <i name="e_0_energy">     -0.00000000 </i>
  </energy>
  <time name="totalsc"> 3051.24 3064.49</time>
 </calculation>
 <calculation>
  <scstep>
   <time name="total">  145.27  145.64</time>
   <energy>
    <i name="alphaZ">      0.02058585 </i>
    <i name="ewald">    358.58114061 </i>
    <i name="hartreedc">  -1067.26526183 </i>
    <i name="XCdc">     42.65143726 </i>
    <i name="pawpsdc">    972.33025166 </i>
    <i name="pawaedc">   -974.21798989 </i>
    <i name="eentropy">     -0.00000000 </i>
    <i name="bandstr">   -238.85205125 </i>
    <i name="atom">    858.90217520 </i>
    <i name="e_fr_energy">    -10.65818517 </i>
    <i name="e_wo_entrp">    -10.65818517 </i>
    <i name="e_0_energy">    -10.65818517 </i>
   </energy>
  </scstep>
  <scstep>
   <time name="total">  148.57  148.96</time>
   <energy>
    <i name="e_fr_energy">    -12.72878397 </i>
    <i name="e_wo_entrp">    -12.72878397 </i>
    <i name="e_0_energy">    -12.72878397 </i>
   </energy>
  </scstep>
  <scstep>
   <time name="total">  145.46  145.84</time>
   <energy>
    <i name="e_fr_energy">    -13.49954497 </i>
    <i name="e_wo_entrp">    -13.49954497 </i>
    <i name="e_0_energy">    -13.49954497 </i>
   </energy>
  </scstep>
  <scstep>
   <time name="total">  143.70  144.07</time>
   <energy>
    <i name="e_fr_energy">    -13.66984945 </i>
    <i name="e_wo_entrp">    -13.66984945 </i>
    <i name="e_0_energy">    -13.66984945 </i>
   </energy>
  </scstep>
  <scstep>
   <time name="total">  144.37  144.74</time>
   <energy>
    <i name="e_fr_energy">    -13.71052671 </i>
    <i name="e_wo_entrp">    -13.71052671 </i>
    <i name="e_0_energy">    -13.71052671 </i>
   </energy>
  </scstep>
  <scstep>
   <time name="total">  144.04  144.44</time>
   <energy>
    <i name="e_fr_energy">    -13.71971262 </i>
    <i name="e_wo_entrp">    -13.71971262 </i>
    <i name="e_0_energy">    -13.71971262 </i>
   </energy>
  </scstep>
  <scstep>
   <time name="total">  143.35  143.73</time>
   <energy>
    <i name="e_fr_energy">    -13.72209328 </i>
    <i name="e_wo_entrp">    -13.72209328 </i>
    <i name="e_0_energy">    -13.72209328 </i>
   </energy>
  </scstep>
  <scstep>
   <time name="total">  143.83  144.21</time>
   <energy>
    <i name="e_fr_energy">    -13.72262398 </i>
    <i name="e_wo_entrp">    -13.72262398 </i>
    <i name="e_0_energy">    -13.72262398 </i>
   </energy>
  </scstep>
  <scstep>
   <time name="total">  143.02  143.39</time>
   <energy>
    <i name="e_fr_energy">    -13.72276775 </i>
    <i name="e_wo_entrp">    -13.72276775 </i>
    <i name="e_0_energy">    -13.72276775 </i>
   </energy>
  </scstep>
  <scstep>
   <time name="total">  143.32  143.69</time>
   <energy>
    <i name="e_fr_energy">    -13.72281252 </i>
    <i name="e_wo_entrp">    -13.72281252 </i>
    <i name="e_0_energy">    -13.72281252 </i>
   </energy>
  </scstep>
  <scstep>
   <time name="total">  143.53  143.90</time>
   <energy>
    <i name="e_fr_energy">    -13.72282951 </i>
    <i name="e_wo_entrp">    -13.72282951 </i>
    <i name="e_0_energy">    -13.72282951 </i>
   </energy>
  </scstep>
  <scstep>
   <time name="total">  143.29  143.66</time>
   <energy>
    <i name="e_fr_energy">    -13.72283662 </i>
    <i name="e_wo_entrp">    -13.72283662 </i>
    <i name="e_0_energy">    -13.72283662 </i>
   </energy>
  </scstep>
  <scstep>
   <time name="total">  143.62  144.00</time>
   <energy>
    <i name="e_fr_energy">    -13.72283926 </i>
    <i name="e_wo_entrp">    -13.72283926 </i>
    <i name="e_0_energy">    -13.72283926 </i>
   </energy>
  </scstep>
  <scstep>
   <time name="total">  207.21  207.75</time>
   <energy>
    <i name="alphaZ">      0.02058585 </i>
    <i name="ewald">    358.58114061 </i>
    <i name="hartreedc">  -1087.51336813 </i>
    <i name="XCdc">     43.06773795 </i>
    <i name="pawpsdc">    991.47215062 </i>
    <i name="pawaedc">   -993.25495482 </i>
    <i name="eentropy">     -0.00000000 </i>
    <i name="bandstr">   -222.63864836 </i>
    <i name="atom">    858.90217520 </i>
    <i name="e_fr_energy">    -13.72284018 </i>
    <i name="e_wo_entrp">    -13.72284018 </i>
    <i name="e_0_energy">    -13.72284018 </i>
   </energy>
  </scstep>
  <structure>
   <crystal>
    <varray name="basis" >
     <v>      30.00000000       0.00000000       0.00000000 </v>
     <v>       0.00000000      30.00000000       0.00000000 </v>
     <v>       0.00000000       0.00000000      30.00000000 </v>
    </varray>
    <i name="volume">  27000.00000000 </i>
    <varray name="rec_basis" >
     <v>       0.03333333       0.00000000       0.00000000 </v>
     <v>       0.00000000       0.03333333       0.00000000 </v>
     <v>       0.00000000       0.00000000       0.03333333 </v>
    </varray>
   </crystal>
   <varray name="positions" >
    <v>      -0.00000000       0.00000000       0.00141051 </v>
    <v>       0.00000000      -0.00000000       0.03925616 </v>
   </varray>
  </structure>
  <varray name="forces" >
   <v>       0.00000000       0.00000000      -8.58469818 </v>
   <v>       0.00000000       0.00000000       8.58469818 </v>
  </varray>
  <varray name="stress" >
   <v>      -0.00470955       0.00000000       0.00000000 </v>
   <v>       0.00000000      -0.00470955       0.00000000 </v>
   <v>      -0.00000000       0.00000000       0.57236429 </v>
  </varray>
  <energy>
   <i name="e_fr_energy">    -13.72284018 </i>
   <i name="e_wo_entrp">    -13.72284018 </i>
   <i name="e_0_energy">     -0.00000000 </i>
  </energy>
  <time name="totalsc"> 2169.17 2180.87</time>
 </calculation>
 <calculation>
  <scstep>
   <time name="total">  146.98  147.36</time>
   <energy>
    <i name="alphaZ">      0.02058585 </i>
    <i name="ewald">    329.66559227 </i>
    <i name="hartreedc">  -1079.07219019 </i>
    <i name="XCdc">     42.86610477 </i>
    <i name="pawpsdc">    942.09280869 </i>
    <i name="pawaedc">   -943.51983365 </i>
    <i name="eentropy">     -0.00000000 </i>
    <i name="bandstr">   -199.83942941 </i>
    <i name="atom">    858.90217520 </i>
    <i name="e_fr_energy">    -11.45688129 </i>
    <i name="e_wo_entrp">    -11.45688129 </i>
    <i name="e_0_energy">    -11.45688129 </i>
   </energy>
  </scstep>
  <scstep>
   <time name="total">  148.08  148.46</time>
   <energy>
    <i name="e_fr_energy">    -13.20668894 </i>
    <i name="e_wo_entrp">    -13.20668894 </i>
    <i name="e_0_energy">    -13.20668894 </i>
   </energy>
  </scstep>
  <scstep>
   <time name="total">  144.98  145.36</time>
   <energy>
    <i name="e_fr_energy">    -13.85878678 </i>
    <i name="e_wo_entrp">    -13.85878678 </i>
    <i name="e_0_energy">    -13.85878678 </i>
   </energy>
  </scstep>
  <scstep>
   <time name="total">  144.29  144.66</time>
   <energy>
    <i name="e_fr_energy">    -13.97414951 </i>
    <i name="e_wo_entrp">    -13.97414951 </i>
    <i name="e_0_energy">    -13.97414951 </i>
   </energy>
  </scstep>
  <scstep>
   <time name="total">  143.61  143.98</time>
   <energy>
    <i name="e_fr_energy">    -14.00407899 </i>
    <i name="e_wo_entrp">    -14.00407899 </i>
    <i name="e_0_energy">    -14.00407899 </i>
   </energy>
  </scstep>
  <scstep>
   <time name="total">  143.67  144.03</time>
   <energy>
    <i name="e_fr_energy">    -14.01092181 </i>
    <i name="e_wo_entrp">    -14.01092181 </i>
    <i name="e_0_energy">    -14.01092181 </i>
   </energy>
  </scstep>
  <scstep>
   <time name="total">  143.62  143.98</time>
   <energy>
    <i name="e_fr_energy">    -14.01244566 </i>
    <i name="e_wo_entrp">    -14.01244566 </i>
    <i name="e_0_energy">    -14.01244566 </i>
   </energy>
  </scstep>
  <scstep>
   <time name="total">  143.14  143.51</time>
   <energy>
    <i name="e_fr_energy">    -14.01277379 </i>
    <i name="e_wo_entrp">    -14.01277379 </i>
    <i name="e_0_energy">    -14.01277379 </i>
   </energy>
  </scstep>
  <scstep>
   <time name="total">  143.03  143.41</time>
   <energy>
    <i name="e_fr_energy">    -14.01286356 </i>
    <i name="e_wo_entrp">    -14.01286356 </i>
    <i name="e_0_energy">    -14.01286356 </i>
   </energy>
  </scstep>
  <scstep>
   <time name="total">  143.24  143.61</time>
   <energy>
    <i name="e_fr_energy">    -14.01289037 </i>
    <i name="e_wo_entrp">    -14.01289037 </i>
    <i name="e_0_energy">    -14.01289037 </i>
   </energy>
  </scstep>
  <scstep>
   <time name="total">  142.75  143.12</time>
   <energy>
    <i name="e_fr_energy">    -14.01289985 </i>
    <i name="e_wo_entrp">    -14.01289985 </i>
    <i name="e_0_energy">    -14.01289985 </i>
   </energy>
  </scstep>
  <scstep>
   <time name="total">  143.40  143.78</time>
   <energy>
    <i name="e_fr_energy">    -14.01290406 </i>
    <i name="e_wo_entrp">    -14.01290406 </i>
    <i name="e_0_energy">    -14.01290406 </i>
   </energy>
  </scstep>
  <scstep>
   <time name="total">  143.46  143.82</time>
   <energy>
    <i name="e_fr_energy">    -14.01290585 </i>
    <i name="e_wo_entrp">    -14.01290585 </i>
    <i name="e_0_energy">    -14.01290585 </i>
   </energy>
  </scstep>
  <scstep>
   <time name="total">  207.57  208.12</time>
   <energy>
    <i name="alphaZ">      0.02058585 </i>
    <i name="ewald">    329.66559227 </i>
    <i name="hartreedc">  -1062.64819062 </i>
    <i name="XCdc">     42.57754327 </i>
    <i name="pawpsdc">    919.95590483 </i>
    <i name="pawaedc">   -921.63019973 </i>
    <i name="eentropy">     -0.00000000 </i>
    <i name="bandstr">   -217.94009568 </i>
    <i name="atom">    858.90217520 </i>
    <i name="e_fr_energy">    -14.01290646 </i>
    <i name="e_wo_entrp">    -14.01290646 </i>
    <i name="e_0_energy">    -14.01290646 </i>
   </energy>
  </scstep>
  <structure>
   <crystal>
    <varray name="basis" >
     <v>      30.00000000       0.00000000       0.00000000 </v>
     <v>       0.00000000      30.00000000       0.00000000 </v>
     <v>       0.00000000       0.00000000      30.00000000 </v>
    </varray>
    <i name="volume">  27000.00000000 </i>
    <varray name="rec_basis" >
     <v>       0.03333333       0.00000000       0.00000000 </v>
     <v>       0.00000000       0.03333333       0.00000000 </v>
     <v>       0.00000000       0.00000000       0.03333333 </v>
    </varray>
   </crystal>
   <varray name="positions" >
    <v>      -0.00000000       0.00000000       0.00013076 </v>
    <v>       0.00000000      -0.00000000       0.04053591 </v>
   </varray>
  </structure>
  <varray name="forces" >
   <v>       0.00000000      -0.00000000       0.22950184 </v>
   <v>      -0.00000000       0.00000000      -0.22950184 </v>
  </varray>
  <varray name="stress" >
   <v>      -0.00386165       0.00000000       0.00000000 </v>
   <v>       0.00000000      -0.00386165       0.00000000 </v>
   <v>      -0.00000000       0.00000000      -0.02284998 </v>
  </varray>
  <energy>
   <i name="e_fr_energy">    -14.01290646 </i>
   <i name="e_wo_entrp">    -14.01290646 </i>
   <i name="e_0_energy">     -0.00000000 </i>
  </energy>
  <time name="totalsc"> 2169.33 2175.18</time>
 </calculation>
 <calculation>
  <scstep>
   <time name="total">  143.39  143.76</time>
   <energy>
    <i name="alphaZ">      0.02058585 </i>
    <i name="ewald">    330.37194204 </i>
    <i name="hartreedc">  -1062.83114073 </i>
    <i name="XCdc">     42.58133723 </i>
    <i name="pawpsdc">    921.15978046 </i>
    <i name="pawaedc">   -922.84110179 </i>
    <i name="eentropy">     -0.00000000 </i>
    <i name="bandstr">   -218.46337633 </i>
    <i name="atom">    858.90217520 </i>
    <i name="e_fr_energy">    -14.01148102 </i>
    <i name="e_wo_entrp">    -14.01148102 </i>
    <i name="e_0_energy">    -14.01148102 </i>
   </energy>
  </scstep>
  <scstep>
   <time name="total">  143.32  143.69</time>
   <energy>
    <i name="e_fr_energy">    -14.01263886 </i>
    <i name="e_wo_entrp">    -14.01263886 </i>
    <i name="e_0_energy">    -14.01263886 </i>
   </energy>
  </scstep>
  <scstep>
   <time name="total">  143.46  143.84</time>
   <energy>
    <i name="e_fr_energy">    -14.01306263 </i>
    <i name="e_wo_entrp">    -14.01306263 </i>
    <i name="e_0_energy">    -14.01306263 </i>
   </energy>
  </scstep>
  <scstep>
   <time name="total">  143.10  143.47</time>
   <energy>
    <i name="e_fr_energy">    -14.01315635 </i>
    <i name="e_wo_entrp">    -14.01315635 </i>
    <i name="e_0_energy">    -14.01315635 </i>
   </energy>
  </scstep>
  <scstep>
   <time name="total">  142.67  143.03</time>
   <energy>
    <i name="e_fr_energy">    -14.01318065 </i>
    <i name="e_wo_entrp">    -14.01318065 </i>
    <i name="e_0_energy">    -14.01318065 </i>
   </energy>
  </scstep>
  <scstep>
   <time name="total">  142.89  143.25</time>
   <energy>
    <i name="e_fr_energy">    -14.01318579 </i>
    <i name="e_wo_entrp">    -14.01318579 </i>
    <i name="e_0_energy">    -14.01318579 </i>
   </energy>
  </scstep>
  <scstep>
   <time name="total">  143.45  143.82</time>
   <energy>
    <i name="e_fr_energy">    -14.01318736 </i>
    <i name="e_wo_entrp">    -14.01318736 </i>
    <i name="e_0_energy">    -14.01318736 </i>
   </energy>
  </scstep>
  <scstep>
   <time name="total">  207.16  207.70</time>
   <energy>
    <i name="alphaZ">      0.02058585 </i>
    <i name="ewald">    330.37194204 </i>
    <i name="hartreedc">  -1063.26740686 </i>
    <i name="XCdc">     42.58937099 </i>
    <i name="pawpsdc">    921.62007837 </i>
    <i name="pawaedc">   -923.29668373 </i>
    <i name="eentropy">     -0.00000000 </i>
    <i name="bandstr">   -218.05079636 </i>
    <i name="atom">    858.90217520 </i>
    <i name="e_fr_energy">    -14.01318782 </i>
    <i name="e_wo_entrp">    -14.01318782 </i>
    <i name="e_0_energy">    -14.01318782 </i>
   </energy>
  </scstep>
  <structure>
   <crystal>
    <varray name="basis" >
     <v>      30.00000000       0.00000000       0.00000000 </v>
     <v>       0.00000000      30.00000000       0.00000000 </v>
     <v>       0.00000000       0.00000000      30.00000000 </v>
    </varray>
    <i name="volume">  27000.00000000 </i>
    <varray name="rec_basis" >
     <v>       0.03333333       0.00000000       0.00000000 </v>
     <v>       0.00000000       0.03333333       0.00000000 </v>
     <v>       0.00000000       0.00000000       0.03333333 </v>
    </varray>
   </crystal>
   <varray name="positions" >
    <v>      -0.00000000       0.00000000       0.00016408 </v>
    <v>       0.00000000      -0.00000000       0.04050259 </v>
   </varray>
  </structure>
  <varray name="forces" >
   <v>       0.00000000       0.00000000       0.05443415 </v>
   <v>      -0.00000000       0.00000000      -0.05443415 </v>
  </varray>
  <varray name="stress" >
   <v>      -0.00389365       0.00000000       0.00000000 </v>
   <v>       0.00000000      -0.00389365       0.00000000 </v>
   <v>      -0.00000000       0.00000000      -0.01033258 </v>
  </varray>
  <energy>
   <i name="e_fr_energy">    -14.01318782 </i>
   <i name="e_wo_entrp">    -14.01318782 </i>
   <i name="e_0_energy">     -0.00000000 </i>
  </energy>
  <time name="totalsc"> 1296.53 1299.96</time>
 </calculation>
 <calculation>
  <scstep>
   <time name="total">  143.42  143.79</time>
   <energy>
    <i name="alphaZ">      0.02058585 </i>
    <i name="ewald">    330.59204497 </i>
    <i name="hartreedc">  -1063.32505130 </i>
    <i name="XCdc">     42.59059663 </i>
    <i name="pawpsdc">    921.99262516 </i>
    <i name="pawaedc">   -923.67139898 </i>
    <i name="eentropy">     -0.00000000 </i>
    <i name="bandstr">   -218.21362099 </i>
    <i name="atom">    858.90217520 </i>
    <i name="e_fr_energy">    -14.01303903 </i>
    <i name="e_wo_entrp">    -14.01303903 </i>
    <i name="e_0_energy">    -14.01303903 </i>
   </energy>
  </scstep>
  <scstep>
   <time name="total">  143.51  143.88</time>
   <energy>
    <i name="e_fr_energy">    -14.01315091 </i>
    <i name="e_wo_entrp">    -14.01315091 </i>
    <i name="e_0_energy">    -14.01315091 </i>
   </energy>
  </scstep>
  <scstep>
   <time name="total">  143.04  143.41</time>
   <energy>
    <i name="e_fr_energy">    -14.01319106 </i>
    <i name="e_wo_entrp">    -14.01319106 </i>
    <i name="e_0_energy">    -14.01319106 </i>
   </energy>
  </scstep>
  <scstep>
   <time name="total">  143.39  143.76</time>
   <energy>
    <i name="e_fr_energy">    -14.01320102 </i>
    <i name="e_wo_entrp">    -14.01320102 </i>
    <i name="e_0_energy">    -14.01320102 </i>
   </energy>
  </scstep>
  <scstep>
   <time name="total">  143.24  143.61</time>
   <energy>
    <i name="e_fr_energy">    -14.01320356 </i>
    <i name="e_wo_entrp">    -14.01320356 </i>
    <i name="e_0_energy">    -14.01320356 </i>
   </energy>
  </scstep>
  <scstep>
   <time name="total">  207.37  207.91</time>
   <energy>
    <i name="alphaZ">      0.02058585 </i>
    <i name="ewald">    330.59204497 </i>
    <i name="hartreedc">  -1063.46309264 </i>
    <i name="XCdc">     42.59317386 </i>
    <i name="pawpsdc">    922.14252342 </i>
    <i name="pawaedc">   -923.81982735 </i>
    <i name="eentropy">     -0.00000000 </i>
    <i name="bandstr">   -218.08276701 </i>
    <i name="atom">    858.90217520 </i>
    <i name="e_fr_energy">    -14.01320413 </i>
    <i name="e_wo_entrp">    -14.01320413 </i>
    <i name="e_0_energy">    -14.01320413 </i>
   </energy>
  </scstep>
  <structure>
   <crystal>
    <varray name="basis" >
     <v>      30.00000000       0.00000000       0.00000000 </v>
     <v>       0.00000000      30.00000000       0.00000000 </v>
     <v>       0.00000000       0.00000000      30.00000000 </v>
    </varray>
    <i name="volume">  27000.00000000 </i>
    <varray name="rec_basis" >
     <v>       0.03333333       0.00000000       0.00000000 </v>
     <v>       0.00000000       0.03333333       0.00000000 </v>
     <v>       0.00000000       0.00000000       0.03333333 </v>
    </varray>
   </crystal>
   <varray name="positions" >
    <v>      -0.00000000       0.00000000       0.00017444 </v>
    <v>       0.00000000      -0.00000000       0.04049223 </v>
   </varray>
  </structure>
  <varray name="forces" >
   <v>       0.00000000      -0.00000000       0.00151978 </v>
   <v>      -0.00000000       0.00000000      -0.00151978 </v>
  </varray>
  <varray name="stress" >
   <v>      -0.00397119       0.00000000      -0.00000000 </v>
   <v>       0.00000000      -0.00397119       0.00000000 </v>
   <v>       0.00000000       0.00000000      -0.00628540 </v>
  </varray>
  <energy>
   <i name="e_fr_energy">    -14.01320413 </i>
   <i name="e_wo_entrp">    -14.01320413 </i>
   <i name="e_0_energy">     -0.00000000 </i>
  </energy>
  <time name="totalsc"> 1004.75 1007.41</time>
  <eigenvalues>
   <array>
    <dimension dim="1">band</dimension>
    <dimension dim="2">kpoint</dimension>
    <dimension dim="3">spin</dimension>
    <field>eigene</field>
    <field>occ</field>
    <set>
     <set comment="spin 1">
      <set comment="kpoint 1">
       <r>  -36.3105    1.0000 </r>
       <r>  -23.3512    1.0000 </r>
       <r>  -15.6722    1.0000 </r>
       <r>  -15.6722    1.0000 </r>
       <r>  -15.1323    1.0000 </r>
       <r>   -8.6630    1.0000 </r>
       <r>   -8.6630    1.0000 </r>
       <r>   -0.0723    0.0000 </r>
       <r>    0.0547    0.0000 </r>
       <r>    0.1694    0.0000 </r>
       <r>    0.1737    0.0000 </r>
       <r>    0.1737    0.0000 </r>
       <r>    0.1800    0.0000 </r>
       <r>    0.1800    0.0000 </r>
       <r>    0.2572    0.0000 </r>
       <r>    0.3124    0.0000 </r>
      </set>
      <set comment="kpoint 2">
       <r>  -36.3105    1.0000 </r>
       <r>  -23.3512    1.0000 </r>
       <r>  -15.6722    1.0000 </r>
       <r>  -15.6722    1.0000 </r>
       <r>  -15.1323    1.0000 </r>
       <r>   -8.6630    1.0000 </r>
       <r>   -8.6630    1.0000 </r>
       <r>   -0.0671    0.0000 </r>
       <r>    0.1065    0.0000 </r>
       <r>    0.2014    0.0000 </r>
       <r>    0.2092    0.0000 </r>
       <r>    0.2159    0.0000 </r>
       <r>    0.2198    0.0000 </r>
       <r>    0.2218    0.0000 </r>
       <r>    0.2220    0.0000 </r>
       <r>    0.2223    0.0000 </r>
      </set>
      <set comment="kpoint 3">
       <r>  -36.3105    1.0000 </r>
       <r>  -23.3512    1.0000 </r>
       <r>  -15.6722    1.0000 </r>
       <r>  -15.6722    1.0000 </r>
       <r>  -15.1323    1.0000 </r>
       <r>   -8.6630    1.0000 </r>
       <r>   -8.6630    1.0000 </r>
       <r>   -0.0635    0.0000 </r>
       <r>    0.0935    0.0000 </r>
       <r>    0.0935    0.0000 </r>
       <r>    0.0973    0.0000 </r>
       <r>    0.1699    0.0000 </r>
       <r>    0.2272    0.0000 </r>
       <r>    0.2578    0.0000 </r>
       <r>    0.2602    0.0000 </r>
       <r>    0.2632    0.0000 </r>
      </set>
      <set comment="kpoint 4">
       <r>  -36.3105    1.0000 </r>
       <r>  -23.3512    1.0000 </r>
       <r>  -15.6722    1.0000 </r>
       <r>  -15.6722    1.0000 </r>
       <r>  -15.1323    1.0000 </r>
       <r>   -8.6630    1.0000 </r>
       <r>   -8.6630    1.0000 </r>
       <r>   -0.0671    0.0000 </r>
       <r>    0.0527    0.0000 </r>
       <r>    0.1066    0.0000 </r>
       <r>    0.2093    0.0000 </r>
       <r>    0.2100    0.0000 </r>
       <r>    0.2115    0.0000 </r>
       <r>    0.2214    0.0000 </r>
       <r>    0.2219    0.0000 </r>
       <r>    0.2223    0.0000 </r>
      </set>
      <set comment="kpoint 5">
       <r>  -36.3105    1.0000 </r>
       <r>  -23.3512    1.0000 </r>
       <r>  -15.6722    1.0000 </r>
       <r>  -15.6722    1.0000 </r>
       <r>  -15.1323    1.0000 </r>
       <r>   -8.6630    1.0000 </r>
       <r>   -8.6630    1.0000 </r>
       <r>   -0.0635    0.0000 </r>
       <r>    0.0935    0.0000 </r>
       <r>    0.0972    0.0000 </r>
       <r>    0.1700    0.0000 </r>
       <r>    0.2403    0.0000 </r>
       <r>    0.2469    0.0000 </r>
       <r>    0.2532    0.0000 </r>
       <r>    0.2630    0.0000 </r>
       <r>    0.2633    0.0000 </r>
      </set>
      <set comment="kpoint 6">
       <r>  -36.3105    1.0000 </r>
       <r>  -23.3512    1.0000 </r>
       <r>  -15.6722    1.0000 </r>
       <r>  -15.6722    1.0000 </r>
       <r>  -15.1323    1.0000 </r>
       <r>   -8.6630    1.0000 </r>
       <r>   -8.6630    1.0000 </r>
       <r>   -0.0607    0.0000 </r>
       <r>    0.1282    0.0000 </r>
       <r>    0.1319    0.0000 </r>
       <r>    0.1319    0.0000 </r>
       <r>    0.1387    0.0000 </r>
       <r>    0.1387    0.0000 </r>
       <r>    0.1388    0.0000 </r>
       <r>    0.1393    0.0000 </r>
       <r>    0.3021    0.0000 </r>
      </set>
     </set>
     <set comment="spin 2">
      <set comment="kpoint 1">
       <r>  -34.6420    1.0000 </r>
       <r>  -20.7175    1.0000 </r>
       <r>  -14.0367    1.0000 </r>
       <r>  -12.6132    1.0000 </r>
       <r>  -12.6132    1.0000 </r>
       <r>   -3.3444    0.0000 </r>
       <r>   -3.3444    0.0000 </r>
       <r>   -0.0311    0.0000 </r>
       <r>    0.0751    0.0000 </r>
       <r>    0.1754    0.0000 </r>
       <r>    0.1754    0.0000 </r>
       <r>    0.1799    0.0000 </r>
       <r>    0.1801    0.0000 </r>
       <r>    0.2658    0.0000 </r>
       <r>    0.2760    0.0000 </r>
       <r>    0.3300    0.0000 </r>
      </set>
      <set comment="kpoint 2">
       <r>  -34.6420    1.0000 </r>
       <r>  -20.7175    1.0000 </r>
       <r>  -14.0367    1.0000 </r>
       <r>  -12.6133    1.0000 </r>
       <r>  -12.6133    1.0000 </r>
       <r>   -3.3444    0.0000 </r>
       <r>   -3.3444    0.0000 </r>
       <r>   -0.0184    0.0000 </r>
       <r>    0.0540    0.0000 </r>
       <r>    0.1218    0.0000 </r>
       <r>    0.2096    0.0000 </r>
       <r>    0.2125    0.0000 </r>
       <r>    0.2177    0.0000 </r>
       <r>    0.2219    0.0000 </r>
       <r>    0.2221    0.0000 </r>
       <r>    0.2226    0.0000 </r>
      </set>
      <set comment="kpoint 3">
       <r>  -34.6420    1.0000 </r>
       <r>  -20.7175    1.0000 </r>
       <r>  -14.0367    1.0000 </r>
       <r>  -12.6133    1.0000 </r>
       <r>  -12.6133    1.0000 </r>
       <r>   -3.3444    0.0000 </r>
       <r>   -3.3444    0.0000 </r>
       <r>   -0.0100    0.0000 </r>
       <r>    0.0943    0.0000 </r>
       <r>    0.0943    0.0000 </r>
       <r>    0.0973    0.0000 </r>
       <r>    0.1819    0.0000 </r>
       <r>    0.2414    0.0000 </r>
       <r>    0.2594    0.0000 </r>
       <r>    0.2620    0.0000 </r>
       <r>    0.2638    0.0000 </r>
      </set>
      <set comment="kpoint 4">
       <r>  -34.6420    1.0000 </r>
       <r>  -20.7175    1.0000 </r>
       <r>  -14.0367    1.0000 </r>
       <r>  -12.6133    1.0000 </r>
       <r>  -12.6133    1.0000 </r>
       <r>   -3.3444    0.0000 </r>
       <r>   -3.3444    0.0000 </r>
       <r>   -0.0185    0.0000 </r>
       <r>    0.0536    0.0000 </r>
       <r>    0.1223    0.0000 </r>
       <r>    0.2125    0.0000 </r>
       <r>    0.2126    0.0000 </r>
       <r>    0.2159    0.0000 </r>
       <r>    0.2212    0.0000 </r>
       <r>    0.2221    0.0000 </r>
       <r>    0.2225    0.0000 </r>
      </set>
      <set comment="kpoint 5">
       <r>  -34.6420    1.0000 </r>
       <r>  -20.7175    1.0000 </r>
       <r>  -14.0367    1.0000 </r>
       <r>  -12.6133    1.0000 </r>
       <r>  -12.6133    1.0000 </r>
       <r>   -3.3444    0.0000 </r>
       <r>   -3.3444    0.0000 </r>
       <r>   -0.0101    0.0000 </r>
       <r>    0.0935    0.0000 </r>
       <r>    0.0944    0.0000 </r>
       <r>    0.0973    0.0000 </r>
       <r>    0.1831    0.0000 </r>
       <r>    0.2463    0.0000 </r>
       <r>    0.2579    0.0000 </r>
       <r>    0.2600    0.0000 </r>
       <r>    0.2640    0.0000 </r>
      </set>
      <set comment="kpoint 6">
       <r>  -34.6420    1.0000 </r>
       <r>  -20.7175    1.0000 </r>
       <r>  -14.0367    1.0000 </r>
       <r>  -12.6133    1.0000 </r>
       <r>  -12.6133    1.0000 </r>
       <r>   -3.3444    0.0000 </r>
       <r>   -3.3444    0.0000 </r>
       <r>   -0.0040    0.0000 </r>
       <r>    0.1321    0.0000 </r>
       <r>    0.1335    0.0000 </r>
       <r>    0.1335    0.0000 </r>
       <r>    0.1388    0.0000 </r>
       <r>    0.1388    0.0000 </r>
       <r>    0.1388    0.0000 </r>
       <r>    0.1393    0.0000 </r>
       <r>    0.3245    0.0000 </r>
      </set>
     </set>
    </set>
   </array>
  </eigenvalues>
  <separator name="orbital magnetization" >
   <v name="MAGDIPOLOUT">      0.00000000      0.00000000      0.00000000</v>
  </separator>
 </calculation>
 <structure name="finalpos" >
  <crystal>
   <varray name="basis" >
    <v>      30.00000000       0.00000000       0.00000000 </v>
    <v>       0.00000000      30.00000000       0.00000000 </v>
    <v>       0.00000000       0.00000000      30.00000000 </v>
   </varray>
   <i name="volume">  27000.00000000 </i>
   <varray name="rec_basis" >
    <v>       0.03333333       0.00000000       0.00000000 </v>
    <v>       0.00000000       0.03333333       0.00000000 </v>
    <v>       0.00000000       0.00000000       0.03333333 </v>
   </varray>
  </crystal>
  <varray name="positions" >
   <v>      -0.00000000       0.00000000       0.00017444 </v>
   <v>       0.00000000      -0.00000000       0.04049223 </v>
  </varray>
 </structure>
</modeling>
