<?xml version="1.0" encoding="ISO-8859-1"?>
<modeling>
 <generator>
  <i name="program" type="string">vasp </i>
  <i name="version" type="string">6.2.0  </i>
  <i name="subversion" type="string">18Jan21 (build Feb 15 2021 19:12:26) complex                          parallel </i>
  <i name="platform" type="string">LinuxIFC-AVX-CX1-JMF-Aug2020 </i>
  <i name="date" type="string">2024 01 25 </i>
  <i name="time" type="string">09:09:21 </i>
 </generator>
 <incar>
  <i type="string" name="PREC">Accurate</i>
  <i type="string" name="ALGO">Normal</i>
  <i type="int" name="ICHARG">     1</i>
  <i type="int" name="NELM">   120</i>
  <i type="int" name="IBRION">     2</i>
  <i name="EDIFF">      0.00000040</i>
  <i name="EDIFFG">     -0.01000000</i>
  <i type="int" name="NSW">   100</i>
  <i type="int" name="ISIF">     3</i>
  <i name="ENCUT">    450.00000000</i>
  <i type="int" name="NEDOS">  2000</i>
  <i type="string" name="LREAL">Auto</i>
  <i type="int" name="ISMEAR">     0</i>
  <i name="SIGMA">      0.05000000</i>
  <i type="int" name="LORBIT">    11</i>
  <i type="logical" name="LASPH"> T  </i>
  <i name="HFSCREEN">      0.00000000</i>
  <i type="logical" name="LHFCALC"> F  </i>
  <i type="string" name="GGA">Ps</i>
 </incar>
 <primitive_cell>
  <structure name="primitive_cell" >
   <crystal>
    <varray name="basis" >
     <v>       0.00000000       2.10392697       2.10392697 </v>
     <v>       2.10392697       0.00000000       2.10392697 </v>
     <v>       2.10392697       2.10392697       0.00000000 </v>
    </varray>
    <i name="volume">     18.62610214 </i>
    <varray name="rec_basis" >
     <v>      -0.23765083       0.23765083       0.23765083 </v>
     <v>       0.23765083      -0.23765083       0.23765083 </v>
     <v>       0.23765083       0.23765083      -0.23765083 </v>
    </varray>
   </crystal>
   <varray name="positions" >
    <v>       0.00000000       0.00000000       0.00000000 </v>
    <v>       0.50000000       0.50000000       0.50000000 </v>
   </varray>
  </structure>
  <varray name="primitive_index" >
   <v type="int" >        1 </v>
   <v type="int" >        2 </v>
  </varray>
 </primitive_cell>
 <kpoints>
  <generation param="Gamma">
   <v type="int" name="divisions">       8        8        8 </v>
   <v name="usershift">      0.00000000       0.00000000       0.00000000 </v>
   <v name="genvec1">      0.12500000       0.00000000       0.00000000 </v>
   <v name="genvec2">      0.00000000       0.12500000       0.00000000 </v>
   <v name="genvec3">      0.00000000       0.00000000       0.12500000 </v>
   <v name="shift">      0.00000000       0.00000000       0.00000000 </v>
  </generation>
  <varray name="kpointlist" >
   <v>       0.00000000       0.00000000       0.00000000 </v>
   <v>       0.12500000       0.00000000       0.00000000 </v>
   <v>       0.25000000       0.00000000       0.00000000 </v>
   <v>       0.37500000       0.00000000       0.00000000 </v>
   <v>       0.50000000       0.00000000       0.00000000 </v>
   <v>       0.12500000       0.12500000       0.00000000 </v>
   <v>       0.25000000       0.12500000       0.00000000 </v>
   <v>       0.37500000       0.12500000       0.00000000 </v>
   <v>       0.50000000       0.12500000       0.00000000 </v>
   <v>      -0.37500000       0.12500000       0.00000000 </v>
   <v>      -0.25000000       0.12500000       0.00000000 </v>
   <v>      -0.12500000       0.12500000       0.00000000 </v>
   <v>       0.25000000       0.25000000       0.00000000 </v>
   <v>       0.37500000       0.25000000       0.00000000 </v>
   <v>       0.50000000       0.25000000       0.00000000 </v>
   <v>      -0.37500000       0.25000000       0.00000000 </v>
   <v>      -0.25000000       0.25000000       0.00000000 </v>
   <v>       0.37500000       0.37500000       0.00000000 </v>
   <v>       0.50000000       0.37500000       0.00000000 </v>
   <v>      -0.37500000       0.37500000       0.00000000 </v>
   <v>       0.50000000       0.50000000       0.00000000 </v>
   <v>       0.37500000       0.25000000       0.12500000 </v>
   <v>       0.50000000       0.25000000       0.12500000 </v>
   <v>      -0.37500000       0.25000000       0.12500000 </v>
   <v>       0.50000000       0.37500000       0.12500000 </v>
   <v>      -0.37500000       0.37500000       0.12500000 </v>
   <v>      -0.25000000       0.37500000       0.12500000 </v>
   <v>      -0.37500000       0.50000000       0.12500000 </v>
   <v>      -0.25000000       0.50000000       0.25000000 </v>
  </varray>
  <varray name="weights" >
   <v>       0.00195312 </v>
   <v>       0.01562500 </v>
   <v>       0.01562500 </v>
   <v>       0.01562500 </v>
   <v>       0.00781250 </v>
   <v>       0.01171875 </v>
   <v>       0.04687500 </v>
   <v>       0.04687500 </v>
   <v>       0.04687500 </v>
   <v>       0.04687500 </v>
   <v>       0.04687500 </v>
   <v>       0.02343750 </v>
   <v>       0.01171875 </v>
   <v>       0.04687500 </v>
   <v>       0.04687500 </v>
   <v>       0.04687500 </v>
   <v>       0.02343750 </v>
   <v>       0.01171875 </v>
   <v>       0.04687500 </v>
   <v>       0.02343750 </v>
   <v>       0.00585938 </v>
   <v>       0.04687500 </v>
   <v>       0.09375000 </v>
   <v>       0.04687500 </v>
   <v>       0.04687500 </v>
   <v>       0.09375000 </v>
   <v>       0.04687500 </v>
   <v>       0.02343750 </v>
   <v>       0.01171875 </v>
  </varray>
 </kpoints>
 <parameters>
  <separator name="general" >
   <i type="string" name="SYSTEM">unknown system</i>
   <i type="logical" name="LCOMPAT"> F  </i>
  </separator>
  <separator name="electronic" >
   <i type="string" name="PREC">accura</i>
   <i name="ENMAX">    450.00000000</i>
   <i name="ENAUG">    605.39200000</i>
   <i name="EDIFF">      0.00000040</i>
   <i type="int" name="IALGO">    38</i>
   <i type="int" name="IWAVPR">    11</i>
   <i type="int" name="NBANDS">    12</i>
   <i type="int" name="NBANDSLOW">    -1</i>
   <i type="int" name="NBANDSHIGH">    -1</i>
   <i name="NELECT">      8.00000000</i>
   <i type="int" name="TURBO">     0</i>
   <i type="int" name="IRESTART">     0</i>
   <i type="int" name="NREBOOT">     0</i>
   <i type="int" name="NMIN">     0</i>
   <i name="EREF">      0.00000000</i>
   <separator name="electronic smearing" >
    <i type="int" name="ISMEAR">     0</i>
    <i name="SIGMA">      0.05000000</i>
    <i name="KSPACING">      0.50000000</i>
    <i type="logical" name="KGAMMA"> T  </i>
    <i type="logical" name="KBLOWUP"> T  </i>
   </separator>
   <separator name="electronic projectors" >
    <i type="logical" name="LREAL"> T  </i>
    <v name="ROPT">     -0.00025000     -0.00025000</v>
    <i type="int" name="LMAXPAW">  -100</i>
    <i type="int" name="LMAXMIX">     2</i>
    <i type="logical" name="NLSPLINE"> F  </i>
   </separator>
   <separator name="electronic startup" >
    <i type="int" name="ISTART">     1</i>
    <i type="int" name="ICHARG">     1</i>
    <i type="int" name="INIWAV">     1</i>
   </separator>
   <separator name="electronic spin" >
    <i type="int" name="ISPIN">     1</i>
    <i type="logical" name="LNONCOLLINEAR"> F  </i>
    <v name="MAGMOM">      1.00000000      1.00000000</v>
    <i name="NUPDOWN">     -1.00000000</i>
    <i type="logical" name="LSORBIT"> F  </i>
    <v name="SAXIS">      0.00000000      0.00000000      1.00000000</v>
    <i type="logical" name="LSPIRAL"> F  </i>
    <v name="QSPIRAL">      0.00000000      0.00000000      0.00000000</v>
    <i type="logical" name="LZEROZ"> F  </i>
   </separator>
   <separator name="electronic exchange-correlation" >
    <i type="logical" name="LASPH"> T  </i>
    <i type="logical" name="LMETAGGA"> F  </i>
   </separator>
   <separator name="electronic convergence" >
    <i type="int" name="NELM">   120</i>
    <i type="int" name="NELMDL">     0</i>
    <i type="int" name="NELMIN">     2</i>
    <i name="ENINI">    450.00000000</i>
    <separator name="electronic convergence detail" >
     <i type="logical" name="LDIAG"> T  </i>
     <i type="logical" name="LSUBROT"> F  </i>
     <i name="WEIMIN">      0.00100000</i>
     <i name="EBREAK">      0.00000001</i>
     <i name="DEPER">      0.30000000</i>
     <i type="int" name="NRMM">     4</i>
     <i name="TIME">      0.40000000</i>
    </separator>
   </separator>
   <separator name="electronic mixer" >
    <i name="AMIX">      0.40000000</i>
    <i name="BMIX">      1.00000000</i>
    <i name="AMIN">      0.10000000</i>
    <i name="AMIX_MAG">      1.60000000</i>
    <i name="BMIX_MAG">      1.00000000</i>
    <separator name="electronic mixer details" >
     <i type="int" name="IMIX">     4</i>
     <i type="logical" name="MIXFIRST"> F  </i>
     <i type="int" name="MAXMIX">   -45</i>
     <i name="WC">    100.00000000</i>
     <i type="int" name="INIMIX">     1</i>
     <i type="int" name="MIXPRE">     1</i>
     <i type="int" name="MREMOVE">     5</i>
    </separator>
   </separator>
   <separator name="electronic dipolcorrection" >
    <i type="logical" name="LDIPOL"> F  </i>
    <i type="logical" name="LMONO"> F  </i>
    <i type="int" name="IDIPOL">     0</i>
    <i name="EPSILON">      1.00000000</i>
    <v name="DIPOL">   -100.00000000   -100.00000000   -100.00000000</v>
    <i name="EFIELD">      0.00000000</i>
   </separator>
  </separator>
  <separator name="grids" >
   <i type="int" name="NGX">    24</i>
   <i type="int" name="NGY">    24</i>
   <i type="int" name="NGZ">    24</i>
   <i type="int" name="NGXF">    48</i>
   <i type="int" name="NGYF">    48</i>
   <i type="int" name="NGZF">    48</i>
   <i type="logical" name="ADDGRID"> F  </i>
  </separator>
  <separator name="ionic" >
   <i type="int" name="NSW">   100</i>
   <i type="int" name="IBRION">     2</i>
   <i type="int" name="MDALGO">     0</i>
   <i type="int" name="ISIF">     3</i>
   <i name="PSTRESS">      0.00000000</i>
   <i name="EDIFFG">     -0.01000000</i>
   <i type="int" name="NFREE">     1</i>
   <i name="POTIM">      0.50000000</i>
   <i name="SMASS">     -3.00000000</i>
   <i name="SCALEE">      1.00000000</i>
  </separator>
  <separator name="ionic md" >
   <i name="TEBEG">      0.00010000</i>
   <i name="TEEND">      0.00010000</i>
   <i type="int" name="NBLOCK">     1</i>
   <i type="int" name="KBLOCK">   100</i>
   <i type="int" name="NPACO">   256</i>
   <i name="APACO">     16.00000000</i>
  </separator>
  <separator name="symmetry" >
   <i type="int" name="ISYM">     2</i>
   <i name="SYMPREC">      0.00001000</i>
  </separator>
  <separator name="dos" >
   <i type="int" name="LORBIT">    11</i>
   <v name="RWIGS">     -1.00000000     -1.00000000</v>
   <i type="int" name="NEDOS">  2000</i>
   <i name="EMIN">     10.00000000</i>
   <i name="EMAX">    -10.00000000</i>
   <i name="EFERMI">      0.00000000</i>
  </separator>
  <separator name="writing" >
   <i type="int" name="NWRITE">     2</i>
   <i type="logical" name="LWAVE"> T  </i>
   <i type="logical" name="LDOWNSAMPLE"> F  </i>
   <i type="logical" name="LCHARG"> T  </i>
   <i type="logical" name="LPARD"> F  </i>
   <i type="logical" name="LVTOT"> F  </i>
   <i type="logical" name="LVHAR"> F  </i>
   <i type="logical" name="LELF"> F  </i>
   <i type="logical" name="LOPTICS"> F  </i>
   <v name="STM">      0.00000000      0.00000000      0.00000000      0.00000000      0.00000000      0.00000000      0.00000000</v>
  </separator>
  <separator name="performance" >
   <i type="int" name="NPAR">     6</i>
   <i type="int" name="NSIM">     4</i>
   <i type="int" name="NBLK">    -1</i>
   <i type="logical" name="LPLANE"> T  </i>
   <i type="logical" name="LSCALAPACK"> T  </i>
   <i type="logical" name="LSCAAWARE"> T  </i>
   <i type="logical" name="LSCALU"> F  </i>
   <i type="logical" name="LASYNC"> F  </i>
   <i type="logical" name="LORBITALREAL"> F  </i>
  </separator>
  <separator name="miscellaneous" >
   <i type="int" name="IDIOT">     3</i>
   <i type="int" name="PHON_NSTRUCT">    -1</i>
   <i type="logical" name="LMUSIC"> F  </i>
   <v name="POMASS">     24.30500000     16.00000000</v>
   <v name="DARWINR">      0.00000000      0.00000000</v>
   <v name="DARWINV">      1.00000000      1.00000000</v>
   <i type="logical" name="LCORR"> T  </i>
  </separator>
  <i type="logical" name="GGA_COMPAT"> T  </i>
  <i type="logical" name="LBERRY"> F  </i>
  <i type="int" name="ICORELEVEL">     0</i>
  <i type="logical" name="LDAU"> F  </i>
  <i type="int" name="I_CONSTRAINED_M">     0</i>
  <separator name="electronic exchange-correlation" >
   <i type="string" name="GGA">PS</i>
   <i type="int" name="VOSKOWN">     0</i>
   <i type="logical" name="LHFCALC"> F  </i>
   <i type="string" name="PRECFOCK"></i>
   <i type="logical" name="LSYMGRAD"> F  </i>
   <i type="logical" name="LHFONE"> F  </i>
   <i type="logical" name="LRHFCALC"> F  </i>
   <i type="logical" name="LTHOMAS"> F  </i>
   <i type="logical" name="LMODELHF"> F  </i>
   <i type="logical" name="LFOCKACE"> F  </i>
   <i name="ENCUT4O">     -1.00000000</i>
   <i type="int" name="EXXOEP">     0</i>
   <i type="int" name="FOURORBIT">     0</i>
   <i name="AEXX">      0.00000000</i>
   <i name="HFALPHA">      0.00000000</i>
   <i name="MCALPHA">      0.00000000</i>
   <i name="ALDAX">      1.00000000</i>
   <i name="AGGAX">      1.00000000</i>
   <i name="ALDAC">      1.00000000</i>
   <i name="AGGAC">      1.00000000</i>
   <i type="int" name="NKREDX">     1</i>
   <i type="int" name="NKREDY">     1</i>
   <i type="int" name="NKREDZ">     1</i>
   <i type="logical" name="SHIFTRED"> F  </i>
   <i type="logical" name="ODDONLY"> F  </i>
   <i type="logical" name="EVENONLY"> F  </i>
   <i type="int" name="LMAXFOCK">     0</i>
   <i type="int" name="NMAXFOCKAE">     0</i>
   <i type="logical" name="LFOCKAEDFT"> F  </i>
   <i name="HFSCREEN">      0.00000000</i>
   <i name="HFSCREENC">      0.00000000</i>
   <i type="int" name="NBANDSGWLOW">     0</i>
  </separator>
  <separator name="vdW DFT" >
   <i type="logical" name="LUSE_VDW"> F  </i>
   <i name="Zab_VDW">     -0.84910000</i>
   <i name="PARAM1">      0.12340000</i>
   <i name="PARAM2">      1.00000000</i>
   <i name="PARAM3">      0.00000000</i>
  </separator>
  <separator name="model GW" >
   <i type="int" name="MODEL_GW">     0</i>
   <i name="MODEL_EPS0">      5.58783064</i>
   <i name="MODEL_ALPHA">      1.00000000</i>
  </separator>
  <separator name="linear response parameters" >
   <i type="logical" name="LEPSILON"> F  </i>
   <i type="logical" name="LRPA"> F  </i>
   <i type="logical" name="LNABLA"> F  </i>
   <i type="logical" name="LVEL"> F  </i>
   <i type="int" name="KINTER">     0</i>
   <i name="CSHIFT">      0.10000000</i>
   <i name="OMEGAMAX">     -1.00000000</i>
   <i name="DEG_THRESHOLD">      0.00200000</i>
   <i name="RTIME">     -0.10000000</i>
   <i name="WPLASMAI">      0.00000000</i>
   <v name="DFIELD">      0.00000000      0.00000000      0.00000000</v>
   <v name="WPLASMA">      0.00000000      0.00000000      0.00000000      0.00000000      0.00000000      0.00000000      0.00000000      0.00000000      0.00000000</v>
  </separator>
  <separator name="orbital magnetization" >
   <i type="logical" name="NUCIND"> F  </i>
   <v name="MAGPOS">      0.00000000      0.00000000      0.00000000</v>
   <i type="logical" name="LNICSALL"> T  </i>
   <i type="logical" name="ORBITALMAG"> F  </i>
   <i type="logical" name="LMAGBLOCH"> F  </i>
   <i type="logical" name="LCHIMAG"> F  </i>
   <i type="logical" name="LGAUGE"> T  </i>
   <i type="int" name="MAGATOM">     0</i>
   <v name="MAGDIPOL">      0.00000000      0.00000000      0.00000000</v>
   <v name="AVECCONST">      0.00000000      0.00000000      0.00000000</v>
  </separator>
  <separator name="response functions" >
   <i type="logical" name="LFINITE_TEMPERATURE"> F  </i>
   <i type="logical" name="LADDER"> F  </i>
   <i type="logical" name="LRPAFORCE"> F  </i>
   <i type="logical" name="LFXC"> F  </i>
   <i type="logical" name="LHARTREE"> T  </i>
   <i type="int" name="IBSE">     0</i>
   <v type="int" name="KPOINT">    -1     0     0     0</v>
   <i type="logical" name="LTCTC"> F  </i>
   <i type="logical" name="LTCTE"> F  </i>
   <i type="logical" name="LTETE"> F  </i>
   <i type="logical" name="LTRIPLET"> F  </i>
   <i type="logical" name="LFXCEPS"> F  </i>
   <i type="logical" name="LFXHEG"> F  </i>
   <i type="int" name="NATURALO">     2</i>
   <i type="logical" name="LHOLEGF"> F  </i>
   <i type="logical" name="L2ORDER"> F  </i>
   <i type="logical" name="LDMP1"> F  </i>
   <i type="logical" name="LMP2LT"> F  </i>
   <i type="logical" name="LSMP2LT"> F  </i>
   <i type="logical" name="LGWLF"> F  </i>
   <i name="ENCUTGW">     -2.00000000</i>
   <i name="ENCUTGWSOFT">     -2.00000000</i>
   <i name="ENCUTLF">     -1.00000000</i>
   <i type="logical" name="LESF_SPLINES"> F  </i>
   <i type="int" name="LMAXMP2">    -1</i>
   <i name="SCISSOR">      0.00000000</i>
   <i type="int" name="NOMEGA">     0</i>
   <i type="int" name="NOMEGAR">     0</i>
   <i type="int" name="NBANDSGW">    -1</i>
   <i type="int" name="NBANDSO">    -1</i>
   <i type="int" name="NBANDSV">    -1</i>
   <i type="int" name="NELM">   120</i>
   <i type="int" name="NELMHF">     1</i>
   <i type="int" name="DIM">     3</i>
   <i type="int" name="IESPILON">     4</i>
   <i type="int" name="ANTIRES">     0</i>
   <i name="OMEGAMAX">    -30.00000000</i>
   <i name="OMEGAMIN">    -30.00000000</i>
   <i name="OMEGATL">   -200.00000000</i>
   <i type="int" name="OMEGAGRID">     0</i>
   <i name="CSHIFT">     -0.10000000</i>
   <i type="logical" name="LSELFENERGY"> F  </i>
   <i type="logical" name="LSPECTRAL"> F  </i>
   <i type="logical" name="LSPECTRALGW"> F  </i>
   <i type="logical" name="LSINGLES"> F  </i>
   <i type="logical" name="LFERMIGW"> F  </i>
   <i type="logical" name="ODDONLYGW"> F  </i>
   <i type="logical" name="EVENONLYGW"> F  </i>
   <i type="int" name="NKREDLFX">     1</i>
   <i type="int" name="NKREDLFY">     1</i>
   <i type="int" name="NKREDLFZ">     1</i>
   <i type="int" name="MAXMEM">  2800</i>
   <i type="int" name="TELESCOPE">     0</i>
   <i type="int" name="NTAUPAR">    -1</i>
   <i type="int" name="NOMEGAPAR">    -1</i>
   <i name="DAMP_NEWTON">      0.80000001</i>
   <i name="LAMBDA">      1.00000000</i>
  </separator>
  <separator name="External order field" >
   <i name="OFIELD_KAPPA">      0.00000000</i>
   <v name="OFIELD_K">      0.00000000      0.00000000      0.00000000</v>
   <i name="OFIELD_Q6_NEAR">      0.00000000</i>
   <i name="OFIELD_Q6_FAR">      0.00000000</i>
   <i name="OFIELD_A">      0.00000000</i>
  </separator>
 </parameters>
 <atominfo>
  <atoms>       2 </atoms>
  <types>       2 </types>
  <array name="atoms" >
   <dimension dim="1">ion</dimension>
   <field type="string">element</field>
   <field type="int">atomtype</field>
   <set>
    <rc><c>Mg</c><c>   1</c></rc>
    <rc><c>O </c><c>   2</c></rc>
   </set>
  </array>
  <array name="atomtypes" >
   <dimension dim="1">type</dimension>
   <field type="int">atomspertype</field>
   <field type="string">element</field>
   <field>mass</field>
   <field>valence</field>
   <field type="string">pseudopotential</field>
   <set>
    <rc><c>   1</c><c>Mg</c><c>     24.30500000</c><c>      2.00000000</c><c>  PAW_PBE Mg 13Apr2007                  </c></rc>
    <rc><c>   1</c><c>O </c><c>     16.00000000</c><c>      6.00000000</c><c>  PAW_PBE O 08Apr2002                   </c></rc>
   </set>
  </array>
 </atominfo>
 <structure name="initialpos" >
  <crystal>
   <varray name="basis" >
    <v>       0.00000000       2.10392697       2.10392697 </v>
    <v>       2.10392697       0.00000000       2.10392697 </v>
    <v>       2.10392697       2.10392697       0.00000000 </v>
   </varray>
   <i name="volume">     18.62610214 </i>
   <varray name="rec_basis" >
    <v>      -0.23765083       0.23765083       0.23765083 </v>
    <v>       0.23765083      -0.23765083       0.23765083 </v>
    <v>       0.23765083       0.23765083      -0.23765083 </v>
   </varray>
  </crystal>
  <varray name="positions" >
   <v>       0.00000000       0.00000000       0.00000000 </v>
   <v>       0.50000000       0.50000000       0.50000000 </v>
  </varray>
 </structure>
 <calculation>
  <scstep>
   <time name="dav">    0.17    0.17</time>
   <time name="total">    0.33    0.34</time>
   <energy>
    <i name="alphaZ">     19.61201787 </i>
    <i name="ewald">   -358.54947623 </i>
    <i name="hartreedc">   -139.44074641 </i>
    <i name="XCdc">    -17.44052900 </i>
    <i name="pawpsdc">    541.37221102 </i>
    <i name="pawaedc">   -492.20023161 </i>
    <i name="eentropy">     -0.00000000 </i>
    <i name="bandstr">    -19.26639651 </i>
    <i name="atom">    453.39661812 </i>
    <i name="e_fr_energy">    -12.51653276 </i>
    <i name="e_wo_entrp">    -12.51653276 </i>
    <i name="e_0_energy">    -12.51653276 </i>
   </energy>
  </scstep>
  <scstep>
   <time name="dav">    0.14    0.14</time>
   <time name="total">    0.30    0.30</time>
   <energy>
    <i name="e_fr_energy">    -12.51647745 </i>
    <i name="e_wo_entrp">    -12.51647745 </i>
    <i name="e_0_energy">    -12.51647745 </i>
   </energy>
  </scstep>
  <scstep>
   <time name="dav">    0.12    0.13</time>
   <time name="total">    0.28    0.28</time>
   <energy>
    <i name="e_fr_energy">    -12.51649418 </i>
    <i name="e_wo_entrp">    -12.51649418 </i>
    <i name="e_0_energy">    -12.51649418 </i>
   </energy>
  </scstep>
  <scstep>
   <time name="dav">    0.09    0.09</time>
   <time name="total">    0.24    0.24</time>
   <energy>
    <i name="e_fr_energy">    -12.51650360 </i>
    <i name="e_wo_entrp">    -12.51650360 </i>
    <i name="e_0_energy">    -12.51650360 </i>
   </energy>
  </scstep>
  <scstep>
   <time name="dav">    0.11    0.11</time>
   <time name="total">    0.26    0.27</time>
   <energy>
    <i name="alphaZ">     19.61201787 </i>
    <i name="ewald">   -358.54947623 </i>
    <i name="hartreedc">   -139.41832483 </i>
    <i name="XCdc">    -17.44199981 </i>
    <i name="pawpsdc">    545.72088847 </i>
    <i name="pawaedc">   -496.55153481 </i>
    <i name="eentropy">     -0.00000000 </i>
    <i name="bandstr">    -19.28469242 </i>
    <i name="atom">    453.39661812 </i>
    <i name="e_fr_energy">    -12.51650365 </i>
    <i name="e_wo_entrp">    -12.51650365 </i>
    <i name="e_0_energy">    -12.51650365 </i>
   </energy>
  </scstep>
  <structure>
   <crystal>
    <varray name="basis" >
     <v>       0.00000000       2.10392697       2.10392697 </v>
     <v>       2.10392697       0.00000000       2.10392697 </v>
     <v>       2.10392697       2.10392697       0.00000000 </v>
    </varray>
    <i name="volume">     18.62610214 </i>
    <varray name="rec_basis" >
     <v>      -0.23765083       0.23765083       0.23765083 </v>
     <v>       0.23765083      -0.23765083       0.23765083 </v>
     <v>       0.23765083       0.23765083      -0.23765083 </v>
    </varray>
   </crystal>
   <varray name="positions" >
    <v>       0.00000000       0.00000000       0.00000000 </v>
    <v>       0.50000000       0.50000000       0.50000000 </v>
   </varray>
  </structure>
  <varray name="forces" >
   <v>       0.00000000       0.00000000       0.00000000 </v>
   <v>      -0.00000000      -0.00000000      -0.00000000 </v>
  </varray>
  <varray name="stress" >
   <v>      -9.86971137      -0.00000000      -0.00000000 </v>
   <v>      -0.00000000      -9.86971137      -0.00000000 </v>
   <v>       0.00000000      -0.00000000      -9.86971137 </v>
  </varray>
  <energy>
   <i name="e_fr_energy">    -12.51650365 </i>
   <i name="e_wo_entrp">    -12.51650365 </i>
   <i name="e_0_energy">    -12.51650365 </i>
  </energy>
  <time name="totalsc">    2.04    2.11</time>
 </calculation>
 <calculation>
  <scstep>
   <time name="dav">    0.11    0.11</time>
   <time name="total">    0.26    0.27</time>
   <energy>
    <i name="alphaZ">     19.77576323 </i>
    <i name="ewald">   -359.54458327 </i>
    <i name="hartreedc">   -139.80529573 </i>
    <i name="XCdc">    -17.35613473 </i>
    <i name="pawpsdc">    545.71713084 </i>
    <i name="pawaedc">   -496.54778056 </i>
    <i name="eentropy">     -0.00000000 </i>
    <i name="bandstr">    -18.15616535 </i>
    <i name="atom">    453.39661812 </i>
    <i name="e_fr_energy">    -12.52044745 </i>
    <i name="e_wo_entrp">    -12.52044745 </i>
    <i name="e_0_energy">    -12.52044745 </i>
   </energy>
  </scstep>
  <scstep>
   <time name="dav">    0.10    0.10</time>
   <time name="total">    0.25    0.25</time>
   <energy>
    <i name="e_fr_energy">    -12.51680538 </i>
    <i name="e_wo_entrp">    -12.51680538 </i>
    <i name="e_0_energy">    -12.51680538 </i>
   </energy>
  </scstep>
  <scstep>
   <time name="dav">    0.11    0.11</time>
   <time name="total">    0.25    0.26</time>
   <energy>
    <i name="e_fr_energy">    -12.51676555 </i>
    <i name="e_wo_entrp">    -12.51676555 </i>
    <i name="e_0_energy">    -12.51676555 </i>
   </energy>
  </scstep>
  <scstep>
   <time name="dav">    0.12    0.12</time>
   <time name="total">    0.26    0.26</time>
   <energy>
    <i name="e_fr_energy">    -12.51674950 </i>
    <i name="e_wo_entrp">    -12.51674950 </i>
    <i name="e_0_energy">    -12.51674950 </i>
   </energy>
  </scstep>
  <scstep>
   <time name="dav">    0.12    0.12</time>
   <time name="total">    0.23    0.24</time>
   <energy>
    <i name="alphaZ">     19.77576323 </i>
    <i name="ewald">   -359.54458327 </i>
    <i name="hartreedc">   -138.96150243 </i>
    <i name="XCdc">    -17.41367506 </i>
    <i name="pawpsdc">    546.93000890 </i>
    <i name="pawaedc">   -497.76633347 </i>
    <i name="eentropy">     -0.00000000 </i>
    <i name="bandstr">    -18.93304592 </i>
    <i name="atom">    453.39661812 </i>
    <i name="e_fr_energy">    -12.51674989 </i>
    <i name="e_wo_entrp">    -12.51674989 </i>
    <i name="e_0_energy">    -12.51674989 </i>
   </energy>
  </scstep>
  <structure>
   <crystal>
    <varray name="basis" >
     <v>      -0.00000000       2.09810396       2.09810396 </v>
     <v>       2.09810396      -0.00000000       2.09810396 </v>
     <v>       2.09810396       2.09810396      -0.00000000 </v>
    </varray>
    <i name="volume">     18.47187609 </i>
    <varray name="rec_basis" >
     <v>      -0.23831040       0.23831040       0.23831040 </v>
     <v>       0.23831040      -0.23831040       0.23831040 </v>
     <v>       0.23831040       0.23831040      -0.23831040 </v>
    </varray>
   </crystal>
   <varray name="positions" >
    <v>       0.00000000       0.00000000       0.00000000 </v>
    <v>       0.50000000       0.50000000       0.50000000 </v>
   </varray>
  </structure>
  <varray name="forces" >
   <v>       0.00000000      -0.00000000       0.00000000 </v>
   <v>      -0.00000000       0.00000000      -0.00000000 </v>
  </varray>
  <varray name="stress" >
   <v>       5.07505717      -0.00000000       0.00000000 </v>
   <v>      -0.00000000       5.07505717       0.00000000 </v>
   <v>      -0.00000000       0.00000000       5.07505717 </v>
  </varray>
  <energy>
   <i name="e_fr_energy">    -12.51674989 </i>
   <i name="e_wo_entrp">    -12.51674989 </i>
   <i name="e_0_energy">    -12.51674989 </i>
  </energy>
  <time name="totalsc">    1.68    1.70</time>
 </calculation>
 <calculation>
  <scstep>
   <time name="dav">    0.11    0.11</time>
   <time name="total">    0.23    0.23</time>
   <energy>
    <i name="alphaZ">     19.72218341 </i>
    <i name="ewald">   -359.21957670 </i>
    <i name="hartreedc">   -138.83834651 </i>
    <i name="XCdc">    -17.44147228 </i>
    <i name="pawpsdc">    546.85382921 </i>
    <i name="pawaedc">   -497.68928958 </i>
    <i name="eentropy">     -0.00000000 </i>
    <i name="bandstr">    -19.30116760 </i>
    <i name="atom">    453.39661812 </i>
    <i name="e_fr_energy">    -12.51722193 </i>
    <i name="e_wo_entrp">    -12.51722193 </i>
    <i name="e_0_energy">    -12.51722193 </i>
   </energy>
  </scstep>
  <scstep>
   <time name="dav">    0.10    0.10</time>
   <time name="total">    0.25    0.25</time>
   <energy>
    <i name="e_fr_energy">    -12.51683237 </i>
    <i name="e_wo_entrp">    -12.51683237 </i>
    <i name="e_0_energy">    -12.51683237 </i>
   </energy>
  </scstep>
  <scstep>
   <time name="dav">    0.10    0.10</time>
   <time name="total">    0.25    0.25</time>
   <energy>
    <i name="e_fr_energy">    -12.51683043 </i>
    <i name="e_wo_entrp">    -12.51683043 </i>
    <i name="e_0_energy">    -12.51683043 </i>
   </energy>
  </scstep>
  <scstep>
   <time name="dav">    0.13    0.13</time>
   <time name="total">    0.27    0.27</time>
   <energy>
    <i name="e_fr_energy">    -12.51682809 </i>
    <i name="e_wo_entrp">    -12.51682809 </i>
    <i name="e_0_energy">    -12.51682809 </i>
   </energy>
  </scstep>
  <scstep>
   <time name="dav">    0.06    0.06</time>
   <time name="total">    0.21    0.21</time>
   <energy>
    <i name="alphaZ">     19.72218341 </i>
    <i name="ewald">   -359.21957670 </i>
    <i name="hartreedc">   -139.11291867 </i>
    <i name="XCdc">    -17.42273813 </i>
    <i name="pawpsdc">    546.45423809 </i>
    <i name="pawaedc">   -497.28784472 </i>
    <i name="eentropy">     -0.00000000 </i>
    <i name="bandstr">    -19.04678925 </i>
    <i name="atom">    453.39661812 </i>
    <i name="e_fr_energy">    -12.51682784 </i>
    <i name="e_wo_entrp">    -12.51682784 </i>
    <i name="e_0_energy">    -12.51682784 </i>
   </energy>
  </scstep>
  <structure>
   <crystal>
    <varray name="basis" >
     <v>      -0.00000000       2.10000224       2.10000224 </v>
     <v>       2.10000224      -0.00000000       2.10000224 </v>
     <v>       2.10000224       2.10000224      -0.00000000 </v>
    </varray>
    <i name="volume">     18.52205916 </i>
    <varray name="rec_basis" >
     <v>      -0.23809498       0.23809498       0.23809498 </v>
     <v>       0.23809498      -0.23809498       0.23809498 </v>
     <v>       0.23809498       0.23809498      -0.23809498 </v>
    </varray>
   </crystal>
   <varray name="positions" >
    <v>       0.00000000       0.00000000       0.00000000 </v>
    <v>       0.50000000       0.50000000       0.50000000 </v>
   </varray>
  </structure>
  <varray name="forces" >
   <v>       0.00000000       0.00000000      -0.00000000 </v>
   <v>      -0.00000000      -0.00000000       0.00000000 </v>
  </varray>
  <varray name="stress" >
   <v>       0.06761369      -0.00000000      -0.00000000 </v>
   <v>      -0.00000000       0.06761369       0.00000000 </v>
   <v>       0.00000000       0.00000000       0.06761369 </v>
  </varray>
  <energy>
   <i name="e_fr_energy">    -12.51682784 </i>
   <i name="e_wo_entrp">    -12.51682784 </i>
   <i name="e_0_energy">    -12.51682784 </i>
  </energy>
  <time name="totalsc">    1.66    1.77</time>
  <eigenvalues>
   <array>
    <dimension dim="1">band</dimension>
    <dimension dim="2">kpoint</dimension>
    <dimension dim="3">spin</dimension>
    <field>eigene</field>
    <field>occ</field>
    <set>
     <set comment="spin 1">
      <set comment="kpoint 1">
       <r>  -14.1178    1.0000 </r>
       <r>    3.1294    1.0000 </r>
       <r>    3.1294    1.0000 </r>
       <r>    3.1294    1.0000 </r>
       <r>    7.8505    0.0000 </r>
       <r>   18.8136    0.0000 </r>
       <r>   18.8136    0.0000 </r>
       <r>   18.8136    0.0000 </r>
       <r>   22.6784    0.0000 </r>
       <r>   24.5727    0.0000 </r>
       <r>   24.5727    0.0000 </r>
       <r>   27.4610    0.0000 </r>
      </set>
      <set comment="kpoint 2">
       <r>  -13.9480    1.0000 </r>
       <r>    2.1580    1.0000 </r>
       <r>    3.0236    1.0000 </r>
       <r>    3.0236    1.0000 </r>
       <r>    8.7710    0.0000 </r>
       <r>   17.1203    0.0000 </r>
       <r>   19.1806    0.0000 </r>
       <r>   19.1806    0.0000 </r>
       <r>   23.6230    0.0000 </r>
       <r>   23.6230    0.0000 </r>
       <r>   24.9083    0.0000 </r>
       <r>   27.6102    0.0000 </r>
      </set>
      <set comment="kpoint 3">
       <r>  -13.5080    1.0000 </r>
       <r>    0.4179    1.0000 </r>
       <r>    2.7792    1.0000 </r>
       <r>    2.7792    1.0000 </r>
       <r>   10.2002    0.0000 </r>
       <r>   15.6037    0.0000 </r>
       <r>   19.7056    0.0000 </r>
       <r>   19.7056    0.0000 </r>
       <r>   23.2239    0.0000 </r>
       <r>   23.2239    0.0000 </r>
       <r>   25.1384    0.0000 </r>
       <r>   30.9208    0.0000 </r>
      </set>
      <set comment="kpoint 4">
       <r>  -13.0104    1.0000 </r>
       <r>   -1.0234    1.0000 </r>
       <r>    2.5487    1.0000 </r>
       <r>    2.5487    1.0000 </r>
       <r>   10.8599    0.0000 </r>
       <r>   15.4749    0.0000 </r>
       <r>   19.5602    0.0000 </r>
       <r>   19.5602    0.0000 </r>
       <r>   24.3466    0.0000 </r>
       <r>   24.5283    0.0000 </r>
       <r>   24.5283    0.0000 </r>
       <r>   32.2871    0.0000 </r>
      </set>
      <set comment="kpoint 5">
       <r>  -12.7814    1.0000 </r>
       <r>   -1.5880    1.0000 </r>
       <r>    2.4566    1.0000 </r>
       <r>    2.4566    1.0000 </r>
       <r>   10.9315    0.0000 </r>
       <r>   15.7380    0.0000 </r>
       <r>   19.3981    0.0000 </r>
       <r>   19.3981    0.0000 </r>
       <r>   24.0283    0.0000 </r>
       <r>   25.5837    0.0000 </r>
       <r>   25.5837    0.0000 </r>
       <r>   31.7491    0.0000 </r>
      </set>
      <set comment="kpoint 6">
       <r>  -13.8939    1.0000 </r>
       <r>    2.0767    1.0000 </r>
       <r>    2.8919    1.0000 </r>
       <r>    2.8919    1.0000 </r>
       <r>    9.0714    0.0000 </r>
       <r>   16.5947    0.0000 </r>
       <r>   19.3530    0.0000 </r>
       <r>   19.3530    0.0000 </r>
       <r>   21.9450    0.0000 </r>
       <r>   25.0574    0.0000 </r>
       <r>   25.9582    0.0000 </r>
       <r>   28.2061    0.0000 </r>
      </set>
      <set comment="kpoint 7">
       <r>  -13.5506    1.0000 </r>
       <r>    0.8212    1.0000 </r>
       <r>    2.6303    1.0000 </r>
       <r>    2.6369    1.0000 </r>
       <r>   10.3650    0.0000 </r>
       <r>   15.2630    0.0000 </r>
       <r>   19.4492    0.0000 </r>
       <r>   19.8938    0.0000 </r>
       <r>   21.1238    0.0000 </r>
       <r>   24.9942    0.0000 </r>
       <r>   27.1509    0.0000 </r>
       <r>   30.3542    0.0000 </r>
      </set>
      <set comment="kpoint 8">
       <r>  -13.0736    1.0000 </r>
       <r>   -0.5379    1.0000 </r>
       <r>    2.2511    1.0000 </r>
       <r>    2.4162    1.0000 </r>
       <r>   11.3840    0.0000 </r>
       <r>   14.9809    0.0000 </r>
       <r>   18.4930    0.0000 </r>
       <r>   19.9910    0.0000 </r>
       <r>   22.4162    0.0000 </r>
       <r>   25.6108    0.0000 </r>
       <r>   26.5972    0.0000 </r>
       <r>   32.3722    0.0000 </r>
      </set>
      <set comment="kpoint 9">
       <r>  -12.7470    1.0000 </r>
       <r>   -1.3160    1.0000 </r>
       <r>    1.9483    1.0000 </r>
       <r>    2.3442    1.0000 </r>
       <r>   11.6267    0.0000 </r>
       <r>   15.5135    0.0000 </r>
       <r>   17.9740    0.0000 </r>
       <r>   19.8035    0.0000 </r>
       <r>   23.8331    0.0000 </r>
       <r>   26.0760    0.0000 </r>
       <r>   26.2748    0.0000 </r>
       <r>   32.6837    0.0000 </r>
      </set>
      <set comment="kpoint 10">
       <r>  -12.8197    1.0000 </r>
       <r>   -1.1393    1.0000 </r>
       <r>    1.8836    1.0000 </r>
       <r>    2.4577    1.0000 </r>
       <r>   11.6287    0.0000 </r>
       <r>   15.4216    0.0000 </r>
       <r>   18.0809    0.0000 </r>
       <r>   19.8707    0.0000 </r>
       <r>   24.3901    0.0000 </r>
       <r>   24.6702    0.0000 </r>
       <r>   26.2843    0.0000 </r>
       <r>   32.9271    0.0000 </r>
      </set>
      <set comment="kpoint 11">
       <r>  -13.2320    1.0000 </r>
       <r>   -0.1124    1.0000 </r>
       <r>    2.1121    1.0000 </r>
       <r>    2.7012    1.0000 </r>
       <r>   11.1568    0.0000 </r>
       <r>   15.1137    0.0000 </r>
       <r>   18.6988    0.0000 </r>
       <r>   20.3205    0.0000 </r>
       <r>   22.1292    0.0000 </r>
       <r>   24.4212    0.0000 </r>
       <r>   26.7233    0.0000 </r>
       <r>   31.4412    0.0000 </r>
      </set>
      <set comment="kpoint 12">
       <r>  -13.6901    1.0000 </r>
       <r>    1.2238    1.0000 </r>
       <r>    2.5907    1.0000 </r>
       <r>    2.9416    1.0000 </r>
       <r>    9.8523    0.0000 </r>
       <r>   15.8965    0.0000 </r>
       <r>   19.2511    0.0000 </r>
       <r>   19.8674    0.0000 </r>
       <r>   21.9909    0.0000 </r>
       <r>   23.9383    0.0000 </r>
       <r>   26.6266    0.0000 </r>
       <r>   28.9371    0.0000 </r>
      </set>
      <set comment="kpoint 13">
       <r>  -13.3405    1.0000 </r>
       <r>    0.4430    1.0000 </r>
       <r>    2.3745    1.0000 </r>
       <r>    2.3745    1.0000 </r>
       <r>   11.2070    0.0000 </r>
       <r>   14.1232    0.0000 </r>
       <r>   18.6011    0.0000 </r>
       <r>   20.5490    0.0000 </r>
       <r>   20.5490    0.0000 </r>
       <r>   26.4679    0.0000 </r>
       <r>   30.4557    0.0000 </r>
       <r>   30.4557    0.0000 </r>
      </set>
      <set comment="kpoint 14">
       <r>  -12.9742    1.0000 </r>
       <r>   -0.3167    1.0000 </r>
       <r>    1.9040    1.0000 </r>
       <r>    2.1530    1.0000 </r>
       <r>   12.2917    0.0000 </r>
       <r>   13.6426    0.0000 </r>
       <r>   17.2511    0.0000 </r>
       <r>   20.9124    0.0000 </r>
       <r>   21.3715    0.0000 </r>
       <r>   27.2132    0.0000 </r>
       <r>   30.4929    0.0000 </r>
       <r>   30.8794    0.0000 </r>
      </set>
      <set comment="kpoint 15">
       <r>  -12.6582    1.0000 </r>
       <r>   -0.7729    1.0000 </r>
       <r>    1.1627    1.0000 </r>
       <r>    2.0865    1.0000 </r>
       <r>   12.7436    0.0000 </r>
       <r>   14.6628    0.0000 </r>
       <r>   16.3985    0.0000 </r>
       <r>   20.7647    0.0000 </r>
       <r>   21.9028    0.0000 </r>
       <r>   27.5840    0.0000 </r>
       <r>   29.9022    0.0000 </r>
       <r>   31.2398    0.0000 </r>
      </set>
      <set comment="kpoint 16">
       <r>  -12.6075    1.0000 </r>
       <r>   -0.7083    1.0000 </r>
       <r>    0.6891    1.0000 </r>
       <r>    2.2071    1.0000 </r>
       <r>   12.9924    0.0000 </r>
       <r>   15.2441    0.0000 </r>
       <r>   16.2547    0.0000 </r>
       <r>   20.5817    0.0000 </r>
       <r>   22.6437    0.0000 </r>
       <r>   25.5907    0.0000 </r>
       <r>   29.4225    0.0000 </r>
       <r>   32.0180    0.0000 </r>
      </set>
      <set comment="kpoint 17">
       <r>  -12.8586    1.0000 </r>
       <r>   -0.4418    1.0000 </r>
       <r>    1.0765    1.0000 </r>
       <r>    2.4579    1.0000 </r>
       <r>   12.5783    0.0000 </r>
       <r>   14.8239    0.0000 </r>
       <r>   17.1590    0.0000 </r>
       <r>   20.6400    0.0000 </r>
       <r>   23.0186    0.0000 </r>
       <r>   24.0654    0.0000 </r>
       <r>   28.8910    0.0000 </r>
       <r>   31.7956    0.0000 </r>
      </set>
      <set comment="kpoint 18">
       <r>  -12.7600    1.0000 </r>
       <r>   -0.6764    1.0000 </r>
       <r>    1.9237    1.0000 </r>
       <r>    1.9237    1.0000 </r>
       <r>   12.5822    0.0000 </r>
       <r>   12.8239    0.0000 </r>
       <r>   16.5000    0.0000 </r>
       <r>   21.6603    0.0000 </r>
       <r>   21.6603    0.0000 </r>
       <r>   28.5622    0.0000 </r>
       <r>   29.5739    0.0000 </r>
       <r>   33.2931    0.0000 </r>
      </set>
      <set comment="kpoint 19">
       <r>  -12.5584    1.0000 </r>
       <r>   -0.8406    1.0000 </r>
       <r>    1.3648    1.0000 </r>
       <r>    1.8463    1.0000 </r>
       <r>   12.5709    0.0000 </r>
       <r>   13.5745    0.0000 </r>
       <r>   16.0703    0.0000 </r>
       <r>   21.7073    0.0000 </r>
       <r>   21.7144    0.0000 </r>
       <r>   29.3851    0.0000 </r>
       <r>   29.5977    0.0000 </r>
       <r>   32.2041    0.0000 </r>
      </set>
      <set comment="kpoint 20">
       <r>  -12.4951    1.0000 </r>
       <r>   -0.4508    1.0000 </r>
       <r>    0.3555    1.0000 </r>
       <r>    1.9585    1.0000 </r>
       <r>   13.1019    0.0000 </r>
       <r>   14.9209    0.0000 </r>
       <r>   15.6122    0.0000 </r>
       <r>   21.2523    0.0000 </r>
       <r>   21.4002    0.0000 </r>
       <r>   28.2079    0.0000 </r>
       <r>   30.4690    0.0000 </r>
       <r>   31.3573    0.0000 </r>
      </set>
      <set comment="kpoint 21">
       <r>  -12.5118    1.0000 </r>
       <r>   -1.0506    1.0000 </r>
       <r>    1.7526    1.0000 </r>
       <r>    1.7526    1.0000 </r>
       <r>   12.0642    0.0000 </r>
       <r>   13.1026    0.0000 </r>
       <r>   16.2069    0.0000 </r>
       <r>   22.1198    0.0000 </r>
       <r>   22.1198    0.0000 </r>
       <r>   28.5332    0.0000 </r>
       <r>   29.9986    0.0000 </r>
       <r>   33.9188    0.0000 </r>
      </set>
      <set comment="kpoint 22">
       <r>  -13.1931    1.0000 </r>
       <r>    0.0525    1.0000 </r>
       <r>    1.9460    1.0000 </r>
       <r>    2.4978    1.0000 </r>
       <r>   11.6210    0.0000 </r>
       <r>   14.4779    0.0000 </r>
       <r>   18.1933    0.0000 </r>
       <r>   20.6480    0.0000 </r>
       <r>   21.1722    0.0000 </r>
       <r>   25.5346    0.0000 </r>
       <r>   28.9647    0.0000 </r>
       <r>   30.6998    0.0000 </r>
      </set>
      <set comment="kpoint 23">
       <r>  -12.8000    1.0000 </r>
       <r>   -0.6577    1.0000 </r>
       <r>    1.3551    1.0000 </r>
       <r>    2.2390    1.0000 </r>
       <r>   12.5797    0.0000 </r>
       <r>   14.7044    0.0000 </r>
       <r>   17.0390    0.0000 </r>
       <r>   20.2552    0.0000 </r>
       <r>   22.7612    0.0000 </r>
       <r>   25.5053    0.0000 </r>
       <r>   29.1640    0.0000 </r>
       <r>   32.1098    0.0000 </r>
      </set>
      <set comment="kpoint 24">
       <r>  -12.6251    1.0000 </r>
       <r>   -0.9616    1.0000 </r>
       <r>    1.1422    1.0000 </r>
       <r>    2.1166    1.0000 </r>
       <r>   12.7247    0.0000 </r>
       <r>   15.2965    0.0000 </r>
       <r>   16.6055    0.0000 </r>
       <r>   20.0099    0.0000 </r>
       <r>   23.6099    0.0000 </r>
       <r>   25.1774    0.0000 </r>
       <r>   29.2939    0.0000 </r>
       <r>   31.9552    0.0000 </r>
      </set>
      <set comment="kpoint 25">
       <r>  -12.6920    1.0000 </r>
       <r>   -0.6050    1.0000 </r>
       <r>    1.3916    1.0000 </r>
       <r>    1.8555    1.0000 </r>
       <r>   13.3758    0.0000 </r>
       <r>   13.4116    0.0000 </r>
       <r>   16.2823    0.0000 </r>
       <r>   20.6036    0.0000 </r>
       <r>   22.3120    0.0000 </r>
       <r>   27.5370    0.0000 </r>
       <r>   30.5879    0.0000 </r>
       <r>   31.8525    0.0000 </r>
      </set>
      <set comment="kpoint 26">
       <r>  -12.5164    1.0000 </r>
       <r>   -0.4618    1.0000 </r>
       <r>    0.5799    1.0000 </r>
       <r>    1.7193    1.0000 </r>
       <r>   13.6226    0.0000 </r>
       <r>   14.8353    0.0000 </r>
       <r>   15.6157    0.0000 </r>
       <r>   19.7308    0.0000 </r>
       <r>   23.1660    0.0000 </r>
       <r>   26.6053    0.0000 </r>
       <r>   30.3654    0.0000 </r>
       <r>   31.7790    0.0000 </r>
      </set>
      <set comment="kpoint 27">
       <r>  -12.5640    1.0000 </r>
       <r>   -0.3329    1.0000 </r>
       <r>    0.3624    1.0000 </r>
       <r>    1.9151    1.0000 </r>
       <r>   13.8145    0.0000 </r>
       <r>   14.7714    0.0000 </r>
       <r>   15.8788    0.0000 </r>
       <r>   19.7707    0.0000 </r>
       <r>   24.0319    0.0000 </r>
       <r>   24.6101    0.0000 </r>
       <r>   31.0426    0.0000 </r>
       <r>   31.6860    0.0000 </r>
      </set>
      <set comment="kpoint 28">
       <r>  -12.4857    1.0000 </r>
       <r>   -0.7460    1.0000 </r>
       <r>    1.1823    1.0000 </r>
       <r>    1.5293    1.0000 </r>
       <r>   12.9813    0.0000 </r>
       <r>   13.9962    0.0000 </r>
       <r>   15.8473    0.0000 </r>
       <r>   20.4684    0.0000 </r>
       <r>   22.7572    0.0000 </r>
       <r>   29.2244    0.0000 </r>
       <r>   29.4102    0.0000 </r>
       <r>   30.9538    0.0000 </r>
      </set>
      <set comment="kpoint 29">
       <r>  -12.4568    1.0000 </r>
       <r>    0.0991    1.0000 </r>
       <r>    0.0991    1.0000 </r>
       <r>    1.3196    1.0000 </r>
       <r>   14.6946    0.0000 </r>
       <r>   14.6946    0.0000 </r>
       <r>   15.3270    0.0000 </r>
       <r>   18.6373    0.0000 </r>
       <r>   25.0575    0.0000 </r>
       <r>   25.0575    0.0000 </r>
       <r>   29.5227    0.0000 </r>
       <r>   32.1272    0.0000 </r>
      </set>
     </set>
    </set>
   </array>
  </eigenvalues>
  <separator name="orbital magnetization" >
   <v name="MAGDIPOLOUT">      0.00000000      0.00000000      0.00000000</v>
  </separator>
  <dos>
   <i name="efermi">      3.33180406 </i>
   <total>
    <array>
     <dimension dim="1">gridpoints</dimension>
     <dimension dim="2">spin</dimension>
     <field>energy</field>
     <field>total</field>
     <field>integrated</field>
     <set>
      <set comment="spin 1">
       <r>   -16.5197     0.0000     0.0000 </r>
       <r>   -16.4932     0.0000     0.0000 </r>
       <r>   -16.4668     0.0000     0.0000 </r>
       <r>   -16.4404     0.0000     0.0000 </r>
       <r>   -16.4139     0.0000     0.0000 </r>
       <r>   -16.3875     0.0000     0.0000 </r>
       <r>   -16.3611     0.0000     0.0000 </r>
       <r>   -16.3346     0.0000     0.0000 </r>
       <r>   -16.3082     0.0000     0.0000 </r>
       <r>   -16.2818     0.0000     0.0000 </r>
       <r>   -16.2553     0.0000     0.0000 </r>
       <r>   -16.2289     0.0000     0.0000 </r>
       <r>   -16.2025     0.0000     0.0000 </r>
       <r>   -16.1760     0.0000     0.0000 </r>
       <r>   -16.1496     0.0000     0.0000 </r>
       <r>   -16.1232     0.0000     0.0000 </r>
       <r>   -16.0967     0.0000     0.0000 </r>
       <r>   -16.0703     0.0000     0.0000 </r>
       <r>   -16.0439     0.0000     0.0000 </r>
       <r>   -16.0174     0.0000     0.0000 </r>
       <r>   -15.9910     0.0000     0.0000 </r>
       <r>   -15.9646     0.0000     0.0000 </r>
       <r>   -15.9381     0.0000     0.0000 </r>
       <r>   -15.9117     0.0000     0.0000 </r>
       <r>   -15.8853     0.0000     0.0000 </r>
       <r>   -15.8588     0.0000     0.0000 </r>
       <r>   -15.8324     0.0000     0.0000 </r>
       <r>   -15.8060     0.0000     0.0000 </r>
       <r>   -15.7795     0.0000     0.0000 </r>
       <r>   -15.7531     0.0000     0.0000 </r>
       <r>   -15.7267     0.0000     0.0000 </r>
       <r>   -15.7002     0.0000     0.0000 </r>
       <r>   -15.6738     0.0000     0.0000 </r>
       <r>   -15.6474     0.0000     0.0000 </r>
       <r>   -15.6209     0.0000     0.0000 </r>
       <r>   -15.5945     0.0000     0.0000 </r>
       <r>   -15.5681     0.0000     0.0000 </r>
       <r>   -15.5416     0.0000     0.0000 </r>
       <r>   -15.5152     0.0000     0.0000 </r>
       <r>   -15.4888     0.0000     0.0000 </r>
       <r>   -15.4623     0.0000     0.0000 </r>
       <r>   -15.4359     0.0000     0.0000 </r>
       <r>   -15.4095     0.0000     0.0000 </r>
       <r>   -15.3830     0.0000     0.0000 </r>
       <r>   -15.3566     0.0000     0.0000 </r>
       <r>   -15.3302     0.0000     0.0000 </r>
       <r>   -15.3037     0.0000     0.0000 </r>
       <r>   -15.2773     0.0000     0.0000 </r>
       <r>   -15.2509     0.0000     0.0000 </r>
       <r>   -15.2244     0.0000     0.0000 </r>
       <r>   -15.1980     0.0000     0.0000 </r>
       <r>   -15.1716     0.0000     0.0000 </r>
       <r>   -15.1451     0.0000     0.0000 </r>
       <r>   -15.1187     0.0000     0.0000 </r>
       <r>   -15.0923     0.0000     0.0000 </r>
       <r>   -15.0658     0.0000     0.0000 </r>
       <r>   -15.0394     0.0000     0.0000 </r>
       <r>   -15.0130     0.0000     0.0000 </r>
       <r>   -14.9865     0.0000     0.0000 </r>
       <r>   -14.9601     0.0000     0.0000 </r>
       <r>   -14.9337     0.0000     0.0000 </r>
       <r>   -14.9072     0.0000     0.0000 </r>
       <r>   -14.8808     0.0000     0.0000 </r>
       <r>   -14.8544     0.0000     0.0000 </r>
       <r>   -14.8279     0.0000     0.0000 </r>
       <r>   -14.8015     0.0000     0.0000 </r>
       <r>   -14.7751     0.0000     0.0000 </r>
       <r>   -14.7486     0.0000     0.0000 </r>
       <r>   -14.7222     0.0000     0.0000 </r>
       <r>   -14.6958     0.0000     0.0000 </r>
       <r>   -14.6693     0.0000     0.0000 </r>
       <r>   -14.6429     0.0000     0.0000 </r>
       <r>   -14.6165     0.0000     0.0000 </r>
       <r>   -14.5900     0.0000     0.0000 </r>
       <r>   -14.5636     0.0000     0.0000 </r>
       <r>   -14.5372     0.0000     0.0000 </r>
       <r>   -14.5107     0.0000     0.0000 </r>
       <r>   -14.4843     0.0000     0.0000 </r>
       <r>   -14.4579     0.0000     0.0000 </r>
       <r>   -14.4314     0.0000     0.0000 </r>
       <r>   -14.4050     0.0000     0.0000 </r>
       <r>   -14.3786     0.0000     0.0000 </r>
       <r>   -14.3521     0.0000     0.0000 </r>
       <r>   -14.3257     0.0000     0.0000 </r>
       <r>   -14.2993     0.0000     0.0000 </r>
       <r>   -14.2728     0.0000     0.0000 </r>
       <r>   -14.2464     0.0000     0.0000 </r>
       <r>   -14.2200     0.0003     0.0000 </r>
       <r>   -14.1935     0.0021     0.0001 </r>
       <r>   -14.1671     0.0097     0.0003 </r>
       <r>   -14.1407     0.0262     0.0010 </r>
       <r>   -14.1142     0.0416     0.0021 </r>
       <r>   -14.0878     0.0387     0.0031 </r>
       <r>   -14.0614     0.0218     0.0037 </r>
       <r>   -14.0349     0.0142     0.0041 </r>
       <r>   -14.0085     0.0450     0.0053 </r>
       <r>   -13.9821     0.1519     0.0093 </r>
       <r>   -13.9556     0.3221     0.0178 </r>
       <r>   -13.9292     0.4458     0.0296 </r>
       <r>   -13.9028     0.4476     0.0414 </r>
       <r>   -13.8763     0.3500     0.0507 </r>
       <r>   -13.8499     0.2018     0.0560 </r>
       <r>   -13.8235     0.0771     0.0580 </r>
       <r>   -13.7970     0.0201     0.0586 </r>
       <r>   -13.7706     0.0205     0.0591 </r>
       <r>   -13.7442     0.0917     0.0615 </r>
       <r>   -13.7177     0.2730     0.0688 </r>
       <r>   -13.6913     0.4774     0.0814 </r>
       <r>   -13.6649     0.4914     0.0944 </r>
       <r>   -13.6384     0.3152     0.1027 </r>
       <r>   -13.6120     0.2289     0.1088 </r>
       <r>   -13.5856     0.4626     0.1210 </r>
       <r>   -13.5591     0.9369     0.1457 </r>
       <r>   -13.5327     1.2244     0.1781 </r>
       <r>   -13.5063     1.0416     0.2056 </r>
       <r>   -13.4798     0.6077     0.2217 </r>
       <r>   -13.4534     0.2492     0.2283 </r>
       <r>   -13.4270     0.0749     0.2303 </r>
       <r>   -13.4005     0.0456     0.2315 </r>
       <r>   -13.3741     0.1133     0.2345 </r>
       <r>   -13.3477     0.2224     0.2404 </r>
       <r>   -13.3212     0.2740     0.2476 </r>
       <r>   -13.2948     0.2931     0.2553 </r>
       <r>   -13.2684     0.5249     0.2692 </r>
       <r>   -13.2419     1.0962     0.2982 </r>
       <r>   -13.2155     1.6690     0.3423 </r>
       <r>   -13.1891     1.7410     0.3883 </r>
       <r>   -13.1626     1.2515     0.4214 </r>
       <r>   -13.1362     0.6897     0.4396 </r>
       <r>   -13.1098     0.5785     0.4549 </r>
       <r>   -13.0833     0.8985     0.4787 </r>
       <r>   -13.0569     1.1509     0.5091 </r>
       <r>   -13.0305     1.1238     0.5388 </r>
       <r>   -13.0040     1.1548     0.5693 </r>
       <r>   -12.9776     1.3037     0.6038 </r>
       <r>   -12.9512     1.1690     0.6347 </r>
       <r>   -12.9247     0.7272     0.6539 </r>
       <r>   -12.8983     0.4760     0.6665 </r>
       <r>   -12.8719     0.7820     0.6872 </r>
       <r>   -12.8454     1.6905     0.7319 </r>
       <r>   -12.8190     2.9260     0.8092 </r>
       <r>   -12.7926     3.7170     0.9075 </r>
       <r>   -12.7661     3.5081     1.0002 </r>
       <r>   -12.7397     2.7679     1.0734 </r>
       <r>   -12.7133     2.2583     1.1330 </r>
       <r>   -12.6868     2.2740     1.1932 </r>
       <r>   -12.6604     2.6393     1.2629 </r>
       <r>   -12.6340     3.0441     1.3434 </r>
       <r>   -12.6075     3.3201     1.4312 </r>
       <r>   -12.5811     3.5224     1.5243 </r>
       <r>   -12.5547     3.8402     1.6258 </r>
       <r>   -12.5282     4.1722     1.7361 </r>
       <r>   -12.5018     4.0489     1.8431 </r>
       <r>   -12.4754     3.1268     1.9257 </r>
       <r>   -12.4489     1.7877     1.9730 </r>
       <r>   -12.4225     0.7429     1.9926 </r>
       <r>   -12.3961     0.2239     1.9985 </r>
       <r>   -12.3696     0.0476     1.9998 </r>
       <r>   -12.3432     0.0068     2.0000 </r>
       <r>   -12.3168     0.0006     2.0000 </r>
       <r>   -12.2903     0.0000     2.0000 </r>
       <r>   -12.2639     0.0000     2.0000 </r>
       <r>   -12.2375     0.0000     2.0000 </r>
       <r>   -12.2110     0.0000     2.0000 </r>
       <r>   -12.1846     0.0000     2.0000 </r>
       <r>   -12.1582     0.0000     2.0000 </r>
       <r>   -12.1317     0.0000     2.0000 </r>
       <r>   -12.1053     0.0000     2.0000 </r>
       <r>   -12.0789     0.0000     2.0000 </r>
       <r>   -12.0524     0.0000     2.0000 </r>
       <r>   -12.0260     0.0000     2.0000 </r>
       <r>   -11.9996     0.0000     2.0000 </r>
       <r>   -11.9731     0.0000     2.0000 </r>
       <r>   -11.9467     0.0000     2.0000 </r>
       <r>   -11.9203     0.0000     2.0000 </r>
       <r>   -11.8938     0.0000     2.0000 </r>
       <r>   -11.8674     0.0000     2.0000 </r>
       <r>   -11.8410     0.0000     2.0000 </r>
       <r>   -11.8145     0.0000     2.0000 </r>
       <r>   -11.7881     0.0000     2.0000 </r>
       <r>   -11.7617     0.0000     2.0000 </r>
       <r>   -11.7352     0.0000     2.0000 </r>
       <r>   -11.7088     0.0000     2.0000 </r>
       <r>   -11.6824     0.0000     2.0000 </r>
       <r>   -11.6559     0.0000     2.0000 </r>
       <r>   -11.6295     0.0000     2.0000 </r>
       <r>   -11.6031     0.0000     2.0000 </r>
       <r>   -11.5766     0.0000     2.0000 </r>
       <r>   -11.5502     0.0000     2.0000 </r>
       <r>   -11.5238     0.0000     2.0000 </r>
       <r>   -11.4973     0.0000     2.0000 </r>
       <r>   -11.4709     0.0000     2.0000 </r>
       <r>   -11.4445     0.0000     2.0000 </r>
       <r>   -11.4180     0.0000     2.0000 </r>
       <r>   -11.3916     0.0000     2.0000 </r>
       <r>   -11.3652     0.0000     2.0000 </r>
       <r>   -11.3387     0.0000     2.0000 </r>
       <r>   -11.3123     0.0000     2.0000 </r>
       <r>   -11.2859     0.0000     2.0000 </r>
       <r>   -11.2594     0.0000     2.0000 </r>
       <r>   -11.2330     0.0000     2.0000 </r>
       <r>   -11.2066     0.0000     2.0000 </r>
       <r>   -11.1801     0.0000     2.0000 </r>
       <r>   -11.1537     0.0000     2.0000 </r>
       <r>   -11.1273     0.0000     2.0000 </r>
       <r>   -11.1008     0.0000     2.0000 </r>
       <r>   -11.0744     0.0000     2.0000 </r>
       <r>   -11.0480     0.0000     2.0000 </r>
       <r>   -11.0215     0.0000     2.0000 </r>
       <r>   -10.9951     0.0000     2.0000 </r>
       <r>   -10.9687     0.0000     2.0000 </r>
       <r>   -10.9422     0.0000     2.0000 </r>
       <r>   -10.9158     0.0000     2.0000 </r>
       <r>   -10.8894     0.0000     2.0000 </r>
       <r>   -10.8629     0.0000     2.0000 </r>
       <r>   -10.8365     0.0000     2.0000 </r>
       <r>   -10.8101     0.0000     2.0000 </r>
       <r>   -10.7836     0.0000     2.0000 </r>
       <r>   -10.7572     0.0000     2.0000 </r>
       <r>   -10.7308     0.0000     2.0000 </r>
       <r>   -10.7043     0.0000     2.0000 </r>
       <r>   -10.6779     0.0000     2.0000 </r>
       <r>   -10.6515     0.0000     2.0000 </r>
       <r>   -10.6250     0.0000     2.0000 </r>
       <r>   -10.5986     0.0000     2.0000 </r>
       <r>   -10.5722     0.0000     2.0000 </r>
       <r>   -10.5457     0.0000     2.0000 </r>
       <r>   -10.5193     0.0000     2.0000 </r>
       <r>   -10.4929     0.0000     2.0000 </r>
       <r>   -10.4664     0.0000     2.0000 </r>
       <r>   -10.4400     0.0000     2.0000 </r>
       <r>   -10.4136     0.0000     2.0000 </r>
       <r>   -10.3871     0.0000     2.0000 </r>
       <r>   -10.3607     0.0000     2.0000 </r>
       <r>   -10.3343     0.0000     2.0000 </r>
       <r>   -10.3078     0.0000     2.0000 </r>
       <r>   -10.2814     0.0000     2.0000 </r>
       <r>   -10.2550     0.0000     2.0000 </r>
       <r>   -10.2285     0.0000     2.0000 </r>
       <r>   -10.2021     0.0000     2.0000 </r>
       <r>   -10.1757     0.0000     2.0000 </r>
       <r>   -10.1492     0.0000     2.0000 </r>
       <r>   -10.1228     0.0000     2.0000 </r>
       <r>   -10.0964     0.0000     2.0000 </r>
       <r>   -10.0699     0.0000     2.0000 </r>
       <r>   -10.0435     0.0000     2.0000 </r>
       <r>   -10.0171     0.0000     2.0000 </r>
       <r>    -9.9906     0.0000     2.0000 </r>
       <r>    -9.9642     0.0000     2.0000 </r>
       <r>    -9.9378     0.0000     2.0000 </r>
       <r>    -9.9113     0.0000     2.0000 </r>
       <r>    -9.8849     0.0000     2.0000 </r>
       <r>    -9.8585     0.0000     2.0000 </r>
       <r>    -9.8320     0.0000     2.0000 </r>
       <r>    -9.8056     0.0000     2.0000 </r>
       <r>    -9.7792     0.0000     2.0000 </r>
       <r>    -9.7527     0.0000     2.0000 </r>
       <r>    -9.7263     0.0000     2.0000 </r>
       <r>    -9.6999     0.0000     2.0000 </r>
       <r>    -9.6734     0.0000     2.0000 </r>
       <r>    -9.6470     0.0000     2.0000 </r>
       <r>    -9.6206     0.0000     2.0000 </r>
       <r>    -9.5941     0.0000     2.0000 </r>
       <r>    -9.5677     0.0000     2.0000 </r>
       <r>    -9.5413     0.0000     2.0000 </r>
       <r>    -9.5148     0.0000     2.0000 </r>
       <r>    -9.4884     0.0000     2.0000 </r>
       <r>    -9.4620     0.0000     2.0000 </r>
       <r>    -9.4355     0.0000     2.0000 </r>
       <r>    -9.4091     0.0000     2.0000 </r>
       <r>    -9.3827     0.0000     2.0000 </r>
       <r>    -9.3562     0.0000     2.0000 </r>
       <r>    -9.3298     0.0000     2.0000 </r>
       <r>    -9.3034     0.0000     2.0000 </r>
       <r>    -9.2769     0.0000     2.0000 </r>
       <r>    -9.2505     0.0000     2.0000 </r>
       <r>    -9.2241     0.0000     2.0000 </r>
       <r>    -9.1976     0.0000     2.0000 </r>
       <r>    -9.1712     0.0000     2.0000 </r>
       <r>    -9.1448     0.0000     2.0000 </r>
       <r>    -9.1183     0.0000     2.0000 </r>
       <r>    -9.0919     0.0000     2.0000 </r>
       <r>    -9.0655     0.0000     2.0000 </r>
       <r>    -9.0390     0.0000     2.0000 </r>
       <r>    -9.0126     0.0000     2.0000 </r>
       <r>    -8.9862     0.0000     2.0000 </r>
       <r>    -8.9597     0.0000     2.0000 </r>
       <r>    -8.9333     0.0000     2.0000 </r>
       <r>    -8.9069     0.0000     2.0000 </r>
       <r>    -8.8804     0.0000     2.0000 </r>
       <r>    -8.8540     0.0000     2.0000 </r>
       <r>    -8.8276     0.0000     2.0000 </r>
       <r>    -8.8011     0.0000     2.0000 </r>
       <r>    -8.7747     0.0000     2.0000 </r>
       <r>    -8.7483     0.0000     2.0000 </r>
       <r>    -8.7218     0.0000     2.0000 </r>
       <r>    -8.6954     0.0000     2.0000 </r>
       <r>    -8.6690     0.0000     2.0000 </r>
       <r>    -8.6425     0.0000     2.0000 </r>
       <r>    -8.6161     0.0000     2.0000 </r>
       <r>    -8.5897     0.0000     2.0000 </r>
       <r>    -8.5632     0.0000     2.0000 </r>
       <r>    -8.5368     0.0000     2.0000 </r>
       <r>    -8.5104     0.0000     2.0000 </r>
       <r>    -8.4839     0.0000     2.0000 </r>
       <r>    -8.4575     0.0000     2.0000 </r>
       <r>    -8.4311     0.0000     2.0000 </r>
       <r>    -8.4046     0.0000     2.0000 </r>
       <r>    -8.3782     0.0000     2.0000 </r>
       <r>    -8.3518     0.0000     2.0000 </r>
       <r>    -8.3253     0.0000     2.0000 </r>
       <r>    -8.2989     0.0000     2.0000 </r>
       <r>    -8.2725     0.0000     2.0000 </r>
       <r>    -8.2460     0.0000     2.0000 </r>
       <r>    -8.2196     0.0000     2.0000 </r>
       <r>    -8.1932     0.0000     2.0000 </r>
       <r>    -8.1667     0.0000     2.0000 </r>
       <r>    -8.1403     0.0000     2.0000 </r>
       <r>    -8.1139     0.0000     2.0000 </r>
       <r>    -8.0874     0.0000     2.0000 </r>
       <r>    -8.0610     0.0000     2.0000 </r>
       <r>    -8.0346     0.0000     2.0000 </r>
       <r>    -8.0081     0.0000     2.0000 </r>
       <r>    -7.9817     0.0000     2.0000 </r>
       <r>    -7.9553     0.0000     2.0000 </r>
       <r>    -7.9288     0.0000     2.0000 </r>
       <r>    -7.9024     0.0000     2.0000 </r>
       <r>    -7.8760     0.0000     2.0000 </r>
       <r>    -7.8495     0.0000     2.0000 </r>
       <r>    -7.8231     0.0000     2.0000 </r>
       <r>    -7.7967     0.0000     2.0000 </r>
       <r>    -7.7702     0.0000     2.0000 </r>
       <r>    -7.7438     0.0000     2.0000 </r>
       <r>    -7.7174     0.0000     2.0000 </r>
       <r>    -7.6909     0.0000     2.0000 </r>
       <r>    -7.6645     0.0000     2.0000 </r>
       <r>    -7.6381     0.0000     2.0000 </r>
       <r>    -7.6116     0.0000     2.0000 </r>
       <r>    -7.5852     0.0000     2.0000 </r>
       <r>    -7.5588     0.0000     2.0000 </r>
       <r>    -7.5323     0.0000     2.0000 </r>
       <r>    -7.5059     0.0000     2.0000 </r>
       <r>    -7.4795     0.0000     2.0000 </r>
       <r>    -7.4530     0.0000     2.0000 </r>
       <r>    -7.4266     0.0000     2.0000 </r>
       <r>    -7.4002     0.0000     2.0000 </r>
       <r>    -7.3737     0.0000     2.0000 </r>
       <r>    -7.3473     0.0000     2.0000 </r>
       <r>    -7.3209     0.0000     2.0000 </r>
       <r>    -7.2944     0.0000     2.0000 </r>
       <r>    -7.2680     0.0000     2.0000 </r>
       <r>    -7.2416     0.0000     2.0000 </r>
       <r>    -7.2151     0.0000     2.0000 </r>
       <r>    -7.1887     0.0000     2.0000 </r>
       <r>    -7.1623     0.0000     2.0000 </r>
       <r>    -7.1358     0.0000     2.0000 </r>
       <r>    -7.1094     0.0000     2.0000 </r>
       <r>    -7.0830     0.0000     2.0000 </r>
       <r>    -7.0565     0.0000     2.0000 </r>
       <r>    -7.0301     0.0000     2.0000 </r>
       <r>    -7.0037     0.0000     2.0000 </r>
       <r>    -6.9772     0.0000     2.0000 </r>
       <r>    -6.9508     0.0000     2.0000 </r>
       <r>    -6.9244     0.0000     2.0000 </r>
       <r>    -6.8979     0.0000     2.0000 </r>
       <r>    -6.8715     0.0000     2.0000 </r>
       <r>    -6.8451     0.0000     2.0000 </r>
       <r>    -6.8186     0.0000     2.0000 </r>
       <r>    -6.7922     0.0000     2.0000 </r>
       <r>    -6.7658     0.0000     2.0000 </r>
       <r>    -6.7393     0.0000     2.0000 </r>
       <r>    -6.7129     0.0000     2.0000 </r>
       <r>    -6.6865     0.0000     2.0000 </r>
       <r>    -6.6600     0.0000     2.0000 </r>
       <r>    -6.6336     0.0000     2.0000 </r>
       <r>    -6.6072     0.0000     2.0000 </r>
       <r>    -6.5807     0.0000     2.0000 </r>
       <r>    -6.5543     0.0000     2.0000 </r>
       <r>    -6.5279     0.0000     2.0000 </r>
       <r>    -6.5014     0.0000     2.0000 </r>
       <r>    -6.4750     0.0000     2.0000 </r>
       <r>    -6.4486     0.0000     2.0000 </r>
       <r>    -6.4221     0.0000     2.0000 </r>
       <r>    -6.3957     0.0000     2.0000 </r>
       <r>    -6.3693     0.0000     2.0000 </r>
       <r>    -6.3428     0.0000     2.0000 </r>
       <r>    -6.3164     0.0000     2.0000 </r>
       <r>    -6.2900     0.0000     2.0000 </r>
       <r>    -6.2635     0.0000     2.0000 </r>
       <r>    -6.2371     0.0000     2.0000 </r>
       <r>    -6.2107     0.0000     2.0000 </r>
       <r>    -6.1842     0.0000     2.0000 </r>
       <r>    -6.1578     0.0000     2.0000 </r>
       <r>    -6.1314     0.0000     2.0000 </r>
       <r>    -6.1049     0.0000     2.0000 </r>
       <r>    -6.0785     0.0000     2.0000 </r>
       <r>    -6.0521     0.0000     2.0000 </r>
       <r>    -6.0256     0.0000     2.0000 </r>
       <r>    -5.9992     0.0000     2.0000 </r>
       <r>    -5.9728     0.0000     2.0000 </r>
       <r>    -5.9463     0.0000     2.0000 </r>
       <r>    -5.9199     0.0000     2.0000 </r>
       <r>    -5.8935     0.0000     2.0000 </r>
       <r>    -5.8670     0.0000     2.0000 </r>
       <r>    -5.8406     0.0000     2.0000 </r>
       <r>    -5.8142     0.0000     2.0000 </r>
       <r>    -5.7877     0.0000     2.0000 </r>
       <r>    -5.7613     0.0000     2.0000 </r>
       <r>    -5.7349     0.0000     2.0000 </r>
       <r>    -5.7084     0.0000     2.0000 </r>
       <r>    -5.6820     0.0000     2.0000 </r>
       <r>    -5.6556     0.0000     2.0000 </r>
       <r>    -5.6291     0.0000     2.0000 </r>
       <r>    -5.6027     0.0000     2.0000 </r>
       <r>    -5.5763     0.0000     2.0000 </r>
       <r>    -5.5498     0.0000     2.0000 </r>
       <r>    -5.5234     0.0000     2.0000 </r>
       <r>    -5.4970     0.0000     2.0000 </r>
       <r>    -5.4705     0.0000     2.0000 </r>
       <r>    -5.4441     0.0000     2.0000 </r>
       <r>    -5.4177     0.0000     2.0000 </r>
       <r>    -5.3912     0.0000     2.0000 </r>
       <r>    -5.3648     0.0000     2.0000 </r>
       <r>    -5.3384     0.0000     2.0000 </r>
       <r>    -5.3119     0.0000     2.0000 </r>
       <r>    -5.2855     0.0000     2.0000 </r>
       <r>    -5.2591     0.0000     2.0000 </r>
       <r>    -5.2326     0.0000     2.0000 </r>
       <r>    -5.2062     0.0000     2.0000 </r>
       <r>    -5.1798     0.0000     2.0000 </r>
       <r>    -5.1533     0.0000     2.0000 </r>
       <r>    -5.1269     0.0000     2.0000 </r>
       <r>    -5.1005     0.0000     2.0000 </r>
       <r>    -5.0740     0.0000     2.0000 </r>
       <r>    -5.0476     0.0000     2.0000 </r>
       <r>    -5.0212     0.0000     2.0000 </r>
       <r>    -4.9947     0.0000     2.0000 </r>
       <r>    -4.9683     0.0000     2.0000 </r>
       <r>    -4.9419     0.0000     2.0000 </r>
       <r>    -4.9154     0.0000     2.0000 </r>
       <r>    -4.8890     0.0000     2.0000 </r>
       <r>    -4.8626     0.0000     2.0000 </r>
       <r>    -4.8361     0.0000     2.0000 </r>
       <r>    -4.8097     0.0000     2.0000 </r>
       <r>    -4.7833     0.0000     2.0000 </r>
       <r>    -4.7568     0.0000     2.0000 </r>
       <r>    -4.7304     0.0000     2.0000 </r>
       <r>    -4.7040     0.0000     2.0000 </r>
       <r>    -4.6775     0.0000     2.0000 </r>
       <r>    -4.6511     0.0000     2.0000 </r>
       <r>    -4.6247     0.0000     2.0000 </r>
       <r>    -4.5982     0.0000     2.0000 </r>
       <r>    -4.5718     0.0000     2.0000 </r>
       <r>    -4.5454     0.0000     2.0000 </r>
       <r>    -4.5189     0.0000     2.0000 </r>
       <r>    -4.4925     0.0000     2.0000 </r>
       <r>    -4.4661     0.0000     2.0000 </r>
       <r>    -4.4396     0.0000     2.0000 </r>
       <r>    -4.4132     0.0000     2.0000 </r>
       <r>    -4.3868     0.0000     2.0000 </r>
       <r>    -4.3603     0.0000     2.0000 </r>
       <r>    -4.3339     0.0000     2.0000 </r>
       <r>    -4.3075     0.0000     2.0000 </r>
       <r>    -4.2810     0.0000     2.0000 </r>
       <r>    -4.2546     0.0000     2.0000 </r>
       <r>    -4.2282     0.0000     2.0000 </r>
       <r>    -4.2017     0.0000     2.0000 </r>
       <r>    -4.1753     0.0000     2.0000 </r>
       <r>    -4.1489     0.0000     2.0000 </r>
       <r>    -4.1224     0.0000     2.0000 </r>
       <r>    -4.0960     0.0000     2.0000 </r>
       <r>    -4.0696     0.0000     2.0000 </r>
       <r>    -4.0431     0.0000     2.0000 </r>
       <r>    -4.0167     0.0000     2.0000 </r>
       <r>    -3.9903     0.0000     2.0000 </r>
       <r>    -3.9638     0.0000     2.0000 </r>
       <r>    -3.9374     0.0000     2.0000 </r>
       <r>    -3.9110     0.0000     2.0000 </r>
       <r>    -3.8845     0.0000     2.0000 </r>
       <r>    -3.8581     0.0000     2.0000 </r>
       <r>    -3.8317     0.0000     2.0000 </r>
       <r>    -3.8052     0.0000     2.0000 </r>
       <r>    -3.7788     0.0000     2.0000 </r>
       <r>    -3.7524     0.0000     2.0000 </r>
       <r>    -3.7259     0.0000     2.0000 </r>
       <r>    -3.6995     0.0000     2.0000 </r>
       <r>    -3.6731     0.0000     2.0000 </r>
       <r>    -3.6466     0.0000     2.0000 </r>
       <r>    -3.6202     0.0000     2.0000 </r>
       <r>    -3.5938     0.0000     2.0000 </r>
       <r>    -3.5673     0.0000     2.0000 </r>
       <r>    -3.5409     0.0000     2.0000 </r>
       <r>    -3.5145     0.0000     2.0000 </r>
       <r>    -3.4880     0.0000     2.0000 </r>
       <r>    -3.4616     0.0000     2.0000 </r>
       <r>    -3.4352     0.0000     2.0000 </r>
       <r>    -3.4087     0.0000     2.0000 </r>
       <r>    -3.3823     0.0000     2.0000 </r>
       <r>    -3.3559     0.0000     2.0000 </r>
       <r>    -3.3294     0.0000     2.0000 </r>
       <r>    -3.3030     0.0000     2.0000 </r>
       <r>    -3.2766     0.0000     2.0000 </r>
       <r>    -3.2501     0.0000     2.0000 </r>
       <r>    -3.2237     0.0000     2.0000 </r>
       <r>    -3.1973     0.0000     2.0000 </r>
       <r>    -3.1708     0.0000     2.0000 </r>
       <r>    -3.1444     0.0000     2.0000 </r>
       <r>    -3.1180     0.0000     2.0000 </r>
       <r>    -3.0915     0.0000     2.0000 </r>
       <r>    -3.0651     0.0000     2.0000 </r>
       <r>    -3.0387     0.0000     2.0000 </r>
       <r>    -3.0122     0.0000     2.0000 </r>
       <r>    -2.9858     0.0000     2.0000 </r>
       <r>    -2.9594     0.0000     2.0000 </r>
       <r>    -2.9329     0.0000     2.0000 </r>
       <r>    -2.9065     0.0000     2.0000 </r>
       <r>    -2.8801     0.0000     2.0000 </r>
       <r>    -2.8536     0.0000     2.0000 </r>
       <r>    -2.8272     0.0000     2.0000 </r>
       <r>    -2.8008     0.0000     2.0000 </r>
       <r>    -2.7743     0.0000     2.0000 </r>
       <r>    -2.7479     0.0000     2.0000 </r>
       <r>    -2.7215     0.0000     2.0000 </r>
       <r>    -2.6950     0.0000     2.0000 </r>
       <r>    -2.6686     0.0000     2.0000 </r>
       <r>    -2.6422     0.0000     2.0000 </r>
       <r>    -2.6157     0.0000     2.0000 </r>
       <r>    -2.5893     0.0000     2.0000 </r>
       <r>    -2.5629     0.0000     2.0000 </r>
       <r>    -2.5364     0.0000     2.0000 </r>
       <r>    -2.5100     0.0000     2.0000 </r>
       <r>    -2.4836     0.0000     2.0000 </r>
       <r>    -2.4571     0.0000     2.0000 </r>
       <r>    -2.4307     0.0000     2.0000 </r>
       <r>    -2.4043     0.0000     2.0000 </r>
       <r>    -2.3778     0.0000     2.0000 </r>
       <r>    -2.3514     0.0000     2.0000 </r>
       <r>    -2.3250     0.0000     2.0000 </r>
       <r>    -2.2985     0.0000     2.0000 </r>
       <r>    -2.2721     0.0000     2.0000 </r>
       <r>    -2.2457     0.0000     2.0000 </r>
       <r>    -2.2192     0.0000     2.0000 </r>
       <r>    -2.1928     0.0000     2.0000 </r>
       <r>    -2.1664     0.0000     2.0000 </r>
       <r>    -2.1399     0.0000     2.0000 </r>
       <r>    -2.1135     0.0000     2.0000 </r>
       <r>    -2.0871     0.0000     2.0000 </r>
       <r>    -2.0606     0.0000     2.0000 </r>
       <r>    -2.0342     0.0000     2.0000 </r>
       <r>    -2.0078     0.0000     2.0000 </r>
       <r>    -1.9813     0.0000     2.0000 </r>
       <r>    -1.9549     0.0000     2.0000 </r>
       <r>    -1.9285     0.0000     2.0000 </r>
       <r>    -1.9020     0.0000     2.0000 </r>
       <r>    -1.8756     0.0000     2.0000 </r>
       <r>    -1.8492     0.0000     2.0000 </r>
       <r>    -1.8227     0.0000     2.0000 </r>
       <r>    -1.7963     0.0000     2.0000 </r>
       <r>    -1.7699     0.0000     2.0000 </r>
       <r>    -1.7434     0.0000     2.0000 </r>
       <r>    -1.7170     0.0001     2.0000 </r>
       <r>    -1.6906     0.0010     2.0000 </r>
       <r>    -1.6641     0.0082     2.0002 </r>
       <r>    -1.6377     0.0381     2.0013 </r>
       <r>    -1.6113     0.1038     2.0040 </r>
       <r>    -1.5848     0.1658     2.0084 </r>
       <r>    -1.5584     0.1554     2.0125 </r>
       <r>    -1.5320     0.0854     2.0147 </r>
       <r>    -1.5055     0.0275     2.0155 </r>
       <r>    -1.4791     0.0052     2.0156 </r>
       <r>    -1.4527     0.0008     2.0156 </r>
       <r>    -1.4262     0.0031     2.0157 </r>
       <r>    -1.3998     0.0284     2.0165 </r>
       <r>    -1.3734     0.1545     2.0205 </r>
       <r>    -1.3469     0.4918     2.0335 </r>
       <r>    -1.3205     0.9176     2.0578 </r>
       <r>    -1.2941     1.0039     2.0843 </r>
       <r>    -1.2676     0.6447     2.1014 </r>
       <r>    -1.2412     0.2488     2.1080 </r>
       <r>    -1.2148     0.1047     2.1107 </r>
       <r>    -1.1883     0.2428     2.1171 </r>
       <r>    -1.1619     0.6352     2.1339 </r>
       <r>    -1.1355     1.0041     2.1605 </r>
       <r>    -1.1090     0.9511     2.1856 </r>
       <r>    -1.0826     0.6082     2.2017 </r>
       <r>    -1.0562     0.4383     2.2133 </r>
       <r>    -1.0297     0.5362     2.2274 </r>
       <r>    -1.0033     0.7508     2.2473 </r>
       <r>    -0.9769     1.0155     2.2741 </r>
       <r>    -0.9504     1.1303     2.3040 </r>
       <r>    -0.9240     0.8744     2.3271 </r>
       <r>    -0.8976     0.5469     2.3416 </r>
       <r>    -0.8711     0.6131     2.3578 </r>
       <r>    -0.8447     1.0089     2.3845 </r>
       <r>    -0.8183     1.3172     2.4193 </r>
       <r>    -0.7918     1.5022     2.4590 </r>
       <r>    -0.7654     1.7732     2.5059 </r>
       <r>    -0.7390     2.0318     2.5596 </r>
       <r>    -0.7125     2.2696     2.6196 </r>
       <r>    -0.6861     2.6721     2.6902 </r>
       <r>    -0.6597     3.0592     2.7711 </r>
       <r>    -0.6332     2.9534     2.8491 </r>
       <r>    -0.6068     2.3581     2.9115 </r>
       <r>    -0.5804     1.7579     2.9579 </r>
       <r>    -0.5539     1.4713     2.9968 </r>
       <r>    -0.5275     1.4825     3.0360 </r>
       <r>    -0.5011     1.7830     3.0831 </r>
       <r>    -0.4746     2.5343     3.1501 </r>
       <r>    -0.4482     3.1222     3.2327 </r>
       <r>    -0.4218     2.5911     3.3011 </r>
       <r>    -0.3953     1.4591     3.3397 </r>
       <r>    -0.3689     1.0118     3.3665 </r>
       <r>    -0.3425     1.5011     3.4061 </r>
       <r>    -0.3160     2.0107     3.4593 </r>
       <r>    -0.2896     1.6929     3.5040 </r>
       <r>    -0.2632     0.8608     3.5268 </r>
       <r>    -0.2367     0.2636     3.5338 </r>
       <r>    -0.2103     0.0572     3.5353 </r>
       <r>    -0.1839     0.0718     3.5372 </r>
       <r>    -0.1574     0.2829     3.5446 </r>
       <r>    -0.1310     0.7019     3.5632 </r>
       <r>    -0.1046     1.0223     3.5902 </r>
       <r>    -0.0781     0.8736     3.6133 </r>
       <r>    -0.0517     0.4428     3.6250 </r>
       <r>    -0.0253     0.1725     3.6296 </r>
       <r>     0.0012     0.2375     3.6359 </r>
       <r>     0.0276     0.6298     3.6525 </r>
       <r>     0.0540     1.1232     3.6822 </r>
       <r>     0.0805     1.3022     3.7166 </r>
       <r>     0.1069     1.0515     3.7444 </r>
       <r>     0.1333     0.6163     3.7607 </r>
       <r>     0.1598     0.2535     3.7674 </r>
       <r>     0.1862     0.0680     3.7692 </r>
       <r>     0.2126     0.0113     3.7695 </r>
       <r>     0.2391     0.0028     3.7696 </r>
       <r>     0.2655     0.0189     3.7701 </r>
       <r>     0.2919     0.1259     3.7734 </r>
       <r>     0.3184     0.4953     3.7865 </r>
       <r>     0.3448     1.1575     3.8171 </r>
       <r>     0.3712     1.6457     3.8606 </r>
       <r>     0.3977     1.5280     3.9010 </r>
       <r>     0.4241     1.0936     3.9299 </r>
       <r>     0.4505     0.7156     3.9488 </r>
       <r>     0.4770     0.4118     3.9597 </r>
       <r>     0.5034     0.2554     3.9664 </r>
       <r>     0.5298     0.4899     3.9794 </r>
       <r>     0.5563     1.2395     4.0122 </r>
       <r>     0.5827     1.9893     4.0647 </r>
       <r>     0.6091     1.9110     4.1153 </r>
       <r>     0.6356     1.2262     4.1477 </r>
       <r>     0.6620     0.8931     4.1713 </r>
       <r>     0.6884     1.0250     4.1984 </r>
       <r>     0.7149     0.9845     4.2244 </r>
       <r>     0.7413     0.6161     4.2407 </r>
       <r>     0.7677     0.3908     4.2510 </r>
       <r>     0.7942     0.5988     4.2668 </r>
       <r>     0.8206     0.9665     4.2924 </r>
       <r>     0.8470     0.9726     4.3181 </r>
       <r>     0.8735     0.5766     4.3333 </r>
       <r>     0.8999     0.2004     4.3386 </r>
       <r>     0.9263     0.0408     4.3397 </r>
       <r>     0.9528     0.0052     4.3398 </r>
       <r>     0.9792     0.0052     4.3400 </r>
       <r>     1.0056     0.0349     4.3409 </r>
       <r>     1.0321     0.1486     4.3448 </r>
       <r>     1.0585     0.3905     4.3552 </r>
       <r>     1.0849     0.7162     4.3741 </r>
       <r>     1.1114     1.1718     4.4051 </r>
       <r>     1.1378     1.8827     4.4548 </r>
       <r>     1.1642     2.4702     4.5201 </r>
       <r>     1.1907     2.3446     4.5821 </r>
       <r>     1.2171     1.6626     4.6260 </r>
       <r>     1.2435     0.9752     4.6518 </r>
       <r>     1.2700     0.5670     4.6668 </r>
       <r>     1.2964     0.6849     4.6849 </r>
       <r>     1.3228     1.6225     4.7278 </r>
       <r>     1.3493     3.1098     4.8100 </r>
       <r>     1.3757     3.9323     4.9139 </r>
       <r>     1.4021     3.2355     4.9995 </r>
       <r>     1.4286     1.7506     5.0457 </r>
       <r>     1.4550     0.6478     5.0629 </r>
       <r>     1.4814     0.2666     5.0699 </r>
       <r>     1.5079     0.3471     5.0791 </r>
       <r>     1.5343     0.5054     5.0925 </r>
       <r>     1.5607     0.4557     5.1045 </r>
       <r>     1.5872     0.2424     5.1109 </r>
       <r>     1.6136     0.0845     5.1131 </r>
       <r>     1.6400     0.0930     5.1156 </r>
       <r>     1.6665     0.3983     5.1261 </r>
       <r>     1.6929     1.1701     5.1571 </r>
       <r>     1.7193     2.0491     5.2112 </r>
       <r>     1.7458     2.1656     5.2685 </r>
       <r>     1.7722     1.4756     5.3075 </r>
       <r>     1.7986     1.0018     5.3339 </r>
       <r>     1.8251     1.5104     5.3739 </r>
       <r>     1.8515     2.7918     5.4477 </r>
       <r>     1.8779     4.0894     5.5558 </r>
       <r>     1.9044     4.9892     5.6877 </r>
       <r>     1.9308     5.3066     5.8279 </r>
       <r>     1.9572     4.6242     5.9502 </r>
       <r>     1.9837     2.9844     6.0290 </r>
       <r>     2.0101     1.3754     6.0654 </r>
       <r>     2.0365     0.7613     6.0855 </r>
       <r>     2.0630     1.3188     6.1204 </r>
       <r>     2.0894     2.5808     6.1886 </r>
       <r>     2.1158     3.6117     6.2841 </r>
[...]
        <r>  0.0078  0.0020  0.0274  0.0000  0.0000  0.0000  0.0000  0.0000  0.0000 </r>
       </set>
      </set>
      <set comment="kpoint 23">
       <set comment="band 1">
        <r>  0.0058  0.0057  0.0065  0.0010  0.0000  0.0000  0.0023  0.0000  0.0005 </r>
        <r>  0.7601  0.0001  0.0006  0.0000  0.0000  0.0000  0.0000  0.0000  0.0000 </r>
       </set>
       <set comment="band 2">
        <r>  0.0738  0.0005  0.0119  0.0039  0.0011  0.0043  0.0023  0.0011  0.0012 </r>
        <r>  0.0151  0.1307  0.2784  0.0536  0.0000  0.0000  0.0000  0.0000  0.0000 </r>
       </set>
       <set comment="band 3">
        <r>  0.0000  0.0001  0.0045  0.0394  0.0041  0.0005  0.0047  0.0019  0.0015 </r>
        <r>  0.0026  0.0000  0.0915  0.5039  0.0000  0.0000  0.0000  0.0000  0.0000 </r>
       </set>
       <set comment="band 4">
        <r>  0.0040  0.0028  0.0071  0.0019  0.0000  0.0003  0.0121  0.0005  0.0101 </r>
        <r>  0.0002  0.4918  0.1624  0.0285  0.0000  0.0000  0.0000  0.0000  0.0000 </r>
       </set>
       <set comment="band 5">
        <r>  0.0530  0.0516  0.0375  0.0185  0.0095  0.0016  0.0057  0.0004  0.0012 </r>
        <r>  0.0881  0.0223  0.1537  0.0150  0.0000  0.0000  0.0000  0.0000  0.0000 </r>
       </set>
       <set comment="band 6">
        <r>  0.0406  0.0002  0.0028  0.0282  0.0734  0.0027  0.0003  0.0073  0.0001 </r>
        <r>  0.0043  0.0483  0.0562  0.1670  0.0000  0.0000  0.0000  0.0000  0.0000 </r>
       </set>
       <set comment="band 7">
        <r>  0.2455  0.0070  0.1339  0.0107  0.0052  0.0011  0.0006  0.0004  0.0043 </r>
        <r>  0.0005  0.0690  0.0007  0.0001  0.0000  0.0000  0.0000  0.0000  0.0000 </r>
       </set>
       <set comment="band 8">
        <r>  0.0010  0.2643  0.0518  0.0186  0.0000  0.0148  0.0045  0.0020  0.0039 </r>
        <r>  0.0085  0.0141  0.0656  0.0135  0.0000  0.0000  0.0000  0.0000  0.0000 </r>
       </set>
       <set comment="band 9">
        <r>  0.0010  0.0063  0.0007  0.0978  0.1393  0.0147  0.0120  0.0660  0.0020 </r>
        <r>  0.0105  0.0003  0.0265  0.0395  0.0000  0.0000  0.0000  0.0000  0.0000 </r>
       </set>
       <set comment="band 10">
        <r>  0.0121  0.0079  0.0440  0.0014  0.0028  0.2447  0.0122  0.0189  0.1096 </r>
        <r>  0.0210  0.0463  0.0010  0.0180  0.0000  0.0000  0.0000  0.0000  0.0000 </r>
       </set>
       <set comment="band 11">
        <r>  0.0545  0.0010  0.0150  0.1740  0.0047  0.0340  0.0048  0.2624  0.0432 </r>
        <r>  0.0014  0.0038  0.0017  0.0055  0.0000  0.0000  0.0000  0.0000  0.0000 </r>
       </set>
       <set comment="band 12">
        <r>  0.0223  0.0216  0.0187  0.0113  0.0043  0.0259  0.5272  0.0048  0.0091 </r>
        <r>  0.0324  0.0608  0.0784  0.0047  0.0000  0.0000  0.0000  0.0000  0.0000 </r>
       </set>
      </set>
      <set comment="kpoint 24">
       <set comment="band 1">
        <r>  0.0000  0.0068  0.0037  0.0037  0.0000  0.0000  0.0025  0.0000  0.0008 </r>
        <r>  0.7754  0.0000  0.0001  0.0001  0.0000  0.0000  0.0000  0.0000  0.0000 </r>
       </set>
       <set comment="band 2">
        <r>  0.0758  0.0000  0.0107  0.0107  0.0033  0.0033  0.0000  0.0021  0.0001 </r>
        <r>  0.0000  0.1324  0.1609  0.1609  0.0000  0.0000  0.0000  0.0000  0.0000 </r>
       </set>
       <set comment="band 3">
        <r>  0.0000  0.0001  0.0214  0.0214  0.0022  0.0022  0.0090  0.0000  0.0030 </r>
        <r>  0.0054  0.0000  0.2892  0.2892  0.0000  0.0000  0.0000  0.0000  0.0000 </r>
       </set>
       <set comment="band 4">
        <r>  0.0058  0.0000  0.0064  0.0064  0.0001  0.0001  0.0055  0.0010  0.0165 </r>
        <r>  0.0000  0.4781  0.0979  0.0979  0.0000  0.0000  0.0000  0.0000  0.0000 </r>
       </set>
       <set comment="band 5">
        <r>  0.0000  0.0620  0.0393  0.0393  0.0082  0.0082  0.0040  0.0000  0.0013 </r>
        <r>  0.0703  0.0000  0.0730  0.0730  0.0000  0.0000  0.0000  0.0000  0.0000 </r>
       </set>
       <set comment="band 6">
        <r>  0.0800  0.0000  0.0130  0.0130  0.0230  0.0230  0.0000  0.0064  0.0000 </r>
        <r>  0.0000  0.1004  0.1508  0.1508  0.0000  0.0000  0.0000  0.0000  0.0000 </r>
       </set>
       <set comment="band 7">
        <r>  0.2767  0.0000  0.0579  0.0579  0.0076  0.0076  0.0008  0.0014  0.0025 </r>
        <r>  0.0000  0.0693  0.0004  0.0004  0.0000  0.0000  0.0000  0.0000  0.0000 </r>
       </set>
       <set comment="band 8">
        <r>  0.0000  0.2775  0.0369  0.0369  0.0041  0.0041  0.0004  0.0000  0.0001 </r>
        <r>  0.0143  0.0000  0.0398  0.0398  0.0000  0.0000  0.0000  0.0000  0.0000 </r>
       </set>
       <set comment="band 9">
        <r>  0.0000  0.0013  0.0365  0.0365  0.1189  0.1189  0.0432  0.0000  0.0144 </r>
        <r>  0.0493  0.0000  0.0026  0.0026  0.0000  0.0000  0.0000  0.0000  0.0000 </r>
       </set>
       <set comment="band 10">
        <r>  0.0190  0.0000  0.0572  0.0572  0.1047  0.1047  0.0052  0.0573  0.0156 </r>
        <r>  0.0000  0.0285  0.0367  0.0367  0.0000  0.0000  0.0000  0.0000  0.0000 </r>
       </set>
       <set comment="band 11">
        <r>  0.0629  0.0000  0.0652  0.0652  0.0113  0.0113  0.0110  0.3512  0.0331 </r>
        <r>  0.0000  0.0137  0.0000  0.0000  0.0000  0.0000  0.0000  0.0000  0.0000 </r>
       </set>
       <set comment="band 12">
        <r>  0.0000  0.0582  0.0002  0.0002  0.0207  0.0207  0.3916  0.0000  0.1305 </r>
        <r>  0.0228  0.0000  0.0377  0.0377  0.0000  0.0000  0.0000  0.0000  0.0000 </r>
       </set>
      </set>
      <set comment="kpoint 25">
       <set comment="band 1">
        <r>  0.0062  0.0032  0.0043  0.0000  0.0000  0.0000  0.0054  0.0000  0.0001 </r>
        <r>  0.7693  0.0000  0.0006  0.0000  0.0000  0.0000  0.0000  0.0000  0.0000 </r>
       </set>
       <set comment="band 2">
        <r>  0.0336  0.0010  0.0470  0.0000  0.0000  0.0025  0.0048  0.0000  0.0004 </r>
        <r>  0.0141  0.0394  0.4277  0.0000  0.0000  0.0000  0.0000  0.0000  0.0000 </r>
       </set>
       <set comment="band 3">
        <r>  0.0000  0.0000  0.0000  0.0508  0.0039  0.0000  0.0000  0.0016  0.0000 </r>
        <r>  0.0000  0.0000  0.0000  0.6048  0.0000  0.0000  0.0000  0.0000  0.0000 </r>
       </set>
       <set comment="band 4">
        <r>  0.0138  0.0188  0.0063  0.0000  0.0000  0.0006  0.0052  0.0000  0.0057 </r>
        <r>  0.0000  0.5956  0.0539  0.0000  0.0000  0.0000  0.0000  0.0000  0.0000 </r>
       </set>
       <set comment="band 5">
        <r>  0.0000  0.0000  0.0000  0.0174  0.1440  0.0000  0.0000  0.0008  0.0000 </r>
        <r>  0.0000  0.0000  0.0000  0.1001  0.0000  0.0000  0.0000  0.0000  0.0000 </r>
       </set>
       <set comment="band 6">
        <r>  0.2219  0.0273  0.0098  0.0000  0.0000  0.0012  0.0080  0.0000  0.0007 </r>
        <r>  0.0737  0.0338  0.1974  0.0000  0.0000  0.0000  0.0000  0.0000  0.0000 </r>
       </set>
       <set comment="band 7">
        <r>  0.1687  0.0010  0.1532  0.0000  0.0000  0.0046  0.0001  0.0000  0.0010 </r>
        <r>  0.0005  0.0309  0.1278  0.0000  0.0000  0.0000  0.0000  0.0000  0.0000 </r>
       </set>
       <set comment="band 8">
        <r>  0.0109  0.2850  0.0074  0.0000  0.0000  0.0171  0.0098  0.0000  0.0045 </r>
        <r>  0.0212  0.1096  0.0493  0.0000  0.0000  0.0000  0.0000  0.0000  0.0000 </r>
       </set>
       <set comment="band 9">
        <r>  0.0000  0.0000  0.0000  0.2343  0.0568  0.0000  0.0000  0.0300  0.0000 </r>
        <r>  0.0000  0.0000  0.0000  0.1640  0.0000  0.0000  0.0000  0.0000  0.0000 </r>
       </set>
       <set comment="band 10">
        <r>  0.0001  0.0160  0.0319  0.0000  0.0000  0.1874  0.0399  0.0000  0.2468 </r>
        <r>  0.0223  0.0245  0.0004  0.0000  0.0000  0.0000  0.0000  0.0000  0.0000 </r>
       </set>
       <set comment="band 11">
        <r>  0.0423  0.0143  0.0025  0.0000  0.0000  0.0340  0.4941  0.0000  0.0246 </r>
        <r>  0.0716  0.0576  0.0534  0.0000  0.0000  0.0000  0.0000  0.0000  0.0000 </r>
       </set>
       <set comment="band 12">
        <r>  0.0104  0.0013  0.0511  0.0000  0.0000  0.2497  0.0029  0.0000  0.4207 </r>
        <r>  0.0002  0.0092  0.0084  0.0000  0.0000  0.0000  0.0000  0.0000  0.0000 </r>
       </set>
      </set>
      <set comment="kpoint 26">
       <set comment="band 1">
        <r>  0.0009  0.0057  0.0012  0.0011  0.0000  0.0000  0.0059  0.0000  0.0005 </r>
        <r>  0.7856  0.0000  0.0001  0.0000  0.0000  0.0000  0.0000  0.0000  0.0000 </r>
       </set>
       <set comment="band 2">
        <r>  0.0248  0.0005  0.0537  0.0034  0.0007  0.0036  0.0003  0.0007  0.0003 </r>
        <r>  0.0016  0.0508  0.3921  0.0369  0.0000  0.0000  0.0000  0.0000  0.0000 </r>
       </set>
       <set comment="band 3">
        <r>  0.0130  0.0011  0.0117  0.0383  0.0049  0.0003  0.0033  0.0001  0.0000 </r>
        <r>  0.0010  0.0699  0.0818  0.3907  0.0000  0.0000  0.0000  0.0000  0.0000 </r>
       </set>
       <set comment="band 4">
        <r>  0.0200  0.0052  0.0028  0.0121  0.0001  0.0000  0.0024  0.0002  0.0118 </r>
        <r>  0.0000  0.4898  0.0198  0.1292  0.0000  0.0000  0.0000  0.0000  0.0000 </r>
       </set>
       <set comment="band 5">
        <r>  0.0221  0.0277  0.0046  0.0402  0.0748  0.0012  0.0016  0.0001  0.0006 </r>
        <r>  0.0236  0.0002  0.0310  0.1261  0.0000  0.0000  0.0000  0.0000  0.0000 </r>
       </set>
       <set comment="band 6">
        <r>  0.1656  0.0103  0.0196  0.0009  0.0209  0.0113  0.0004  0.0011  0.0012 </r>
        <r>  0.0145  0.0766  0.1702  0.0601  0.0000  0.0000  0.0000  0.0000  0.0000 </r>
       </set>
       <set comment="band 7">
        <r>  0.2179  0.0001  0.0777  0.0032  0.0008  0.0164  0.0011  0.0008  0.0020 </r>
        <r>  0.0000  0.0579  0.1250  0.0025  0.0000  0.0000  0.0000  0.0000  0.0000 </r>
       </set>
       <set comment="band 8">
        <r>  0.0119  0.2963  0.0043  0.0069  0.0112  0.0058  0.0142  0.0001  0.0004 </r>
        <r>  0.0551  0.0431  0.0283  0.0113  0.0000  0.0000  0.0000  0.0000  0.0000 </r>
       </set>
       <set comment="band 9">
        <r>  0.0035  0.0019  0.0007  0.2127  0.1133  0.0031  0.0154  0.0054  0.0024 </r>
        <r>  0.0149  0.0011  0.0013  0.1054  0.0000  0.0000  0.0000  0.0000  0.0000 </r>
       </set>
       <set comment="band 10">
        <r>  0.0013  0.0041  0.0936  0.0038  0.0025  0.2474  0.0124  0.0172  0.0319 </r>
        <r>  0.0093  0.0069  0.0261  0.0104  0.0000  0.0000  0.0000  0.0000  0.0000 </r>
       </set>
       <set comment="band 11">
        <r>  0.0077  0.0535  0.0030  0.0044  0.0056  0.0294  0.4375  0.0005  0.1076 </r>
        <r>  0.0571  0.0074  0.0222  0.0211  0.0000  0.0000  0.0000  0.0000  0.0000 </r>
       </set>
       <set comment="band 12">
        <r>  0.0018  0.0001  0.0247  0.0125  0.0009  0.0095  0.0999  0.0397  0.4957 </r>
        <r>  0.0035  0.1245  0.0002  0.0016  0.0000  0.0000  0.0000  0.0000  0.0000 </r>
       </set>
      </set>
      <set comment="kpoint 27">
       <set comment="band 1">
        <r>  0.0007  0.0067  0.0000  0.0038  0.0000  0.0000  0.0042  0.0000  0.0009 </r>
        <r>  0.7811  0.0000  0.0000  0.0002  0.0000  0.0000  0.0000  0.0000  0.0000 </r>
       </set>
       <set comment="band 2">
        <r>  0.0568  0.0002  0.0000  0.0274  0.0057  0.0000  0.0042  0.0000  0.0001 </r>
        <r>  0.0054  0.1429  0.0000  0.3418  0.0000  0.0000  0.0000  0.0000  0.0000 </r>
       </set>
       <set comment="band 3">
        <r>  0.0000  0.0000  0.0654  0.0000  0.0000  0.0051  0.0000  0.0018  0.0000 </r>
        <r>  0.0000  0.0000  0.5273  0.0000  0.0000  0.0000  0.0000  0.0000  0.0000 </r>
       </set>
       <set comment="band 4">
        <r>  0.0131  0.0001  0.0000  0.0150  0.0000  0.0000  0.0008  0.0000  0.0193 </r>
        <r>  0.0001  0.4637  0.0000  0.1915  0.0000  0.0000  0.0000  0.0000  0.0000 </r>
       </set>
       <set comment="band 5">
        <r>  0.0097  0.0536  0.0000  0.0595  0.0303  0.0000  0.0036  0.0000  0.0010 </r>
        <r>  0.0487  0.0316  0.0000  0.2018  0.0000  0.0000  0.0000  0.0000  0.0000 </r>
       </set>
       <set comment="band 6">
        <r>  0.0000  0.0000  0.0662  0.0000  0.0000  0.0627  0.0000  0.0049  0.0000 </r>
        <r>  0.0000  0.0000  0.2803  0.0000  0.0000  0.0000  0.0000  0.0000  0.0000 </r>
       </set>
       <set comment="band 7">
        <r>  0.3877  0.0048  0.0000  0.0339  0.0012  0.0000  0.0037  0.0000  0.0024 </r>
        <r>  0.0004  0.1396  0.0000  0.0110  0.0000  0.0000  0.0000  0.0000  0.0000 </r>
       </set>
       <set comment="band 8">
        <r>  0.0001  0.2851  0.0000  0.0380  0.0261  0.0000  0.0054  0.0000  0.0015 </r>
        <r>  0.0434  0.0000  0.0000  0.0781  0.0000  0.0000  0.0000  0.0000  0.0000 </r>
       </set>
       <set comment="band 9">
        <r>  0.0069  0.0045  0.0000  0.1394  0.1906  0.0000  0.0593  0.0000  0.0007 </r>
        <r>  0.0380  0.0156  0.0000  0.0174  0.0000  0.0000  0.0000  0.0000  0.0000 </r>
       </set>
       <set comment="band 10">
        <r>  0.0000  0.0000  0.1104  0.0000  0.0000  0.1913  0.0000  0.0495  0.0000 </r>
        <r>  0.0000  0.0000  0.0583  0.0000  0.0000  0.0000  0.0000  0.0000  0.0000 </r>
       </set>
       <set comment="band 11">
        <r>  0.0038  0.0567  0.0000  0.0141  0.0427  0.0000  0.4493  0.0000  0.1184 </r>
        <r>  0.0347  0.0000  0.0000  0.0707  0.0000  0.0000  0.0000  0.0000  0.0000 </r>
       </set>
       <set comment="band 12">
        <r>  0.0000  0.0000  0.1862  0.0000  0.0000  0.0163  0.0000  0.4690  0.0000 </r>
        <r>  0.0000  0.0000  0.0174  0.0000  0.0000  0.0000  0.0000  0.0000  0.0000 </r>
       </set>
      </set>
      <set comment="kpoint 28">
       <set comment="band 1">
        <r>  0.0028  0.0033  0.0000  0.0000  0.0000  0.0000  0.0082  0.0000  0.0002 </r>
        <r>  0.7887  0.0000  0.0000  0.0000  0.0000  0.0000  0.0000  0.0000  0.0000 </r>
       </set>
       <set comment="band 2">
        <r>  0.0000  0.0000  0.0827  0.0000  0.0000  0.0019  0.0000  0.0000  0.0000 </r>
        <r>  0.0000  0.0000  0.4674  0.0000  0.0000  0.0000  0.0000  0.0000  0.0000 </r>
       </set>
       <set comment="band 3">
        <r>  0.0000  0.0000  0.0000  0.0556  0.0041  0.0000  0.0000  0.0000  0.0000 </r>
        <r>  0.0000  0.0000  0.0000  0.5911  0.0000  0.0000  0.0000  0.0000  0.0000 </r>
       </set>
       <set comment="band 4">
        <r>  0.0308  0.0230  0.0000  0.0000  0.0000  0.0000  0.0019  0.0000  0.0059 </r>
        <r>  0.0002  0.6240  0.0000  0.0000  0.0000  0.0000  0.0000  0.0000  0.0000 </r>
       </set>
       <set comment="band 5">
        <r>  0.0000  0.0000  0.0000  0.0139  0.1471  0.0000  0.0000  0.0000  0.0000 </r>
        <r>  0.0000  0.0000  0.0000  0.1003  0.0000  0.0000  0.0000  0.0000  0.0000 </r>
       </set>
       <set comment="band 6">
        <r>  0.4262  0.0200  0.0000  0.0000  0.0000  0.0000  0.0011  0.0000  0.0014 </r>
        <r>  0.0397  0.0579  0.0000  0.0000  0.0000  0.0000  0.0000  0.0000  0.0000 </r>
       </set>
       <set comment="band 7">
        <r>  0.0000  0.0000  0.1088  0.0000  0.0000  0.0150  0.0000  0.0000  0.0000 </r>
        <r>  0.0000  0.0000  0.4149  0.0000  0.0000  0.0000  0.0000  0.0000  0.0000 </r>
       </set>
       <set comment="band 8">
        <r>  0.0226  0.3020  0.0000  0.0000  0.0000  0.0000  0.0204  0.0000  0.0024 </r>
        <r>  0.0456  0.1348  0.0000  0.0000  0.0000  0.0000  0.0000  0.0000  0.0000 </r>
       </set>
       <set comment="band 9">
        <r>  0.0000  0.0000  0.0000  0.2832  0.0505  0.0000  0.0000  0.0000  0.0000 </r>
        <r>  0.0000  0.0000  0.0000  0.2025  0.0000  0.0000  0.0000  0.0000  0.0000 </r>
       </set>
       <set comment="band 10">
        <r>  0.0239  0.0442  0.0000  0.0000  0.0000  0.0000  0.4631  0.0000  0.1089 </r>
        <r>  0.1018  0.0118  0.0000  0.0000  0.0000  0.0000  0.0000  0.0000  0.0000 </r>
       </set>
       <set comment="band 11">
        <r>  0.0000  0.0000  0.0728  0.0000  0.0000  0.3738  0.0000  0.0000  0.0000 </r>
        <r>  0.0000  0.0000  0.0233  0.0000  0.0000  0.0000  0.0000  0.0000  0.0000 </r>
       </set>
       <set comment="band 12">
        <r>  0.0067  0.0002  0.0000  0.0000  0.0000  0.0000  0.0775  0.0000  0.6285 </r>
        <r>  0.0077  0.0907  0.0000  0.0000  0.0000  0.0000  0.0000  0.0000  0.0000 </r>
       </set>
      </set>
      <set comment="kpoint 29">
       <set comment="band 1">
        <r>  0.0000  0.0067  0.0000  0.0000  0.0000  0.0000  0.0054  0.0000  0.0018 </r>
        <r>  0.7917  0.0000  0.0000  0.0000  0.0000  0.0000  0.0000  0.0000  0.0000 </r>
       </set>
       <set comment="band 2">
        <r>  0.0000  0.0000  0.0367  0.0336  0.0025  0.0028  0.0000  0.0000  0.0000 </r>
        <r>  0.0000  0.0000  0.2677  0.2447  0.0000  0.0000  0.0000  0.0000  0.0000 </r>
       </set>
       <set comment="band 3">
        <r>  0.0000  0.0000  0.0336  0.0367  0.0028  0.0025  0.0000  0.0000  0.0000 </r>
        <r>  0.0000  0.0000  0.2447  0.2677  0.0000  0.0000  0.0000  0.0000  0.0000 </r>
       </set>
       <set comment="band 4">
        <r>  0.0582  0.0000  0.0000  0.0000  0.0000  0.0000  0.0038  0.0000  0.0113 </r>
        <r>  0.0000  0.6042  0.0000  0.0000  0.0000  0.0000  0.0000  0.0000  0.0000 </r>
       </set>
       <set comment="band 5">
        <r>  0.0000  0.0000  0.0415  0.0202  0.0235  0.0481  0.0000  0.0000  0.0000 </r>
        <r>  0.0000  0.0000  0.1934  0.0943  0.0000  0.0000  0.0000  0.0000  0.0000 </r>
       </set>
       <set comment="band 6">
        <r>  0.0000  0.0000  0.0202  0.0415  0.0481  0.0235  0.0000  0.0000  0.0000 </r>
        <r>  0.0000  0.0000  0.0943  0.1934  0.0000  0.0000  0.0000  0.0000  0.0000 </r>
       </set>
       <set comment="band 7">
        <r>  0.4316  0.0000  0.0000  0.0000  0.0000  0.0000  0.0020  0.0000  0.0060 </r>
        <r>  0.0000  0.1738  0.0000  0.0000  0.0000  0.0000  0.0000  0.0000  0.0000 </r>
       </set>
       <set comment="band 8">
        <r>  0.0000  0.3399  0.0000  0.0000  0.0000  0.0000  0.0116  0.0000  0.0039 </r>
        <r>  0.1004  0.0000  0.0000  0.0000  0.0000  0.0000  0.0000  0.0000  0.0000 </r>
       </set>
       <set comment="band 9">
        <r>  0.0000  0.0000  0.1167  0.0667  0.0687  0.1203  0.0000  0.0000  0.0000 </r>
        <r>  0.0000  0.0000  0.0634  0.0362  0.0000  0.0000  0.0000  0.0000  0.0000 </r>
       </set>
       <set comment="band 10">
        <r>  0.0000  0.0000  0.0667  0.1167  0.1203  0.0687  0.0000  0.0000  0.0000 </r>
        <r>  0.0000  0.0000  0.0362  0.0634  0.0000  0.0000  0.0000  0.0000  0.0000 </r>
       </set>
       <set comment="band 11">
        <r>  0.0000  0.0752  0.0000  0.0000  0.0000  0.0000  0.4485  0.0000  0.1495 </r>
        <r>  0.0776  0.0000  0.0000  0.0000  0.0000  0.0000  0.0000  0.0000  0.0000 </r>
       </set>
       <set comment="band 12">
        <r>  0.0100  0.0000  0.0000  0.0000  0.0000  0.0000  0.1672  0.0000  0.5015 </r>
        <r>  0.0000  0.1780  0.0000  0.0000  0.0000  0.0000  0.0000  0.0000  0.0000 </r>
       </set>
      </set>
     </set>
    </set>
   </array>
  </projected>
 </calculation>
 <structure name="finalpos" >
  <crystal>
   <varray name="basis" >
    <v>      -0.00000000       2.10000224       2.10000224 </v>
    <v>       2.10000224      -0.00000000       2.10000224 </v>
    <v>       2.10000224       2.10000224      -0.00000000 </v>
   </varray>
   <i name="volume">     18.52205916 </i>
   <varray name="rec_basis" >
    <v>      -0.23809498       0.23809498       0.23809498 </v>
    <v>       0.23809498      -0.23809498       0.23809498 </v>
    <v>       0.23809498       0.23809498      -0.23809498 </v>
   </varray>
  </crystal>
  <varray name="positions" >
   <v>       0.00000000       0.00000000       0.00000000 </v>
   <v>       0.50000000       0.50000000       0.50000000 </v>
  </varray>
 </structure>
</modeling>
