<?xml version="1.0" encoding="ISO-8859-1"?>
<modeling>
 <generator>
  <i name="program" type="string">vasp </i>
  <i name="version" type="string">6.2.0  </i>
  <i name="subversion" type="string">18Jan21 (build Feb 15 2021 19:12:26) complex                          parallel </i>
  <i name="platform" type="string">LinuxIFC-AVX-CX1-JMF-Aug2020 </i>
  <i name="date" type="string">2024 01 25 </i>
  <i name="time" type="string">09:46:48 </i>
 </generator>
 <incar>
  <i type="string" name="PREC">Accurate</i>
  <i type="string" name="ALGO">Normal</i>
  <i type="int" name="ISPIN">     2</i>
  <i type="int" name="ICHARG">     1</i>
  <i type="int" name="NELM">   120</i>
  <i type="int" name="IBRION">     2</i>
  <i name="EDIFF">      0.00000040</i>
  <i name="EDIFFG">     -0.01000000</i>
  <i type="int" name="NSW">   100</i>
  <i type="int" name="ISIF">     2</i>
  <i name="ENCUT">    450.00000000</i>
  <i type="int" name="NEDOS">  2000</i>
  <i name="NUPDOWN">      2.00000000</i>
  <i type="string" name="LREAL">Auto</i>
  <i type="int" name="ISMEAR">     0</i>
  <i name="SIGMA">      0.05000000</i>
  <i type="int" name="LORBIT">    11</i>
  <i type="logical" name="LASPH"> T  </i>
  <i name="HFSCREEN">      0.00000000</i>
  <i type="logical" name="LHFCALC"> F  </i>
  <i type="string" name="GGA">Ps</i>
 </incar>
 <primitive_cell>
  <structure name="primitive_cell" >
   <crystal>
    <varray name="basis" >
     <v>      30.01000000       0.00000000       0.00000000 </v>
     <v>       0.00000000      30.00000000       0.00000000 </v>
     <v>       0.00000000       0.00000000      29.99000000 </v>
    </varray>
    <i name="volume">  26999.99700000 </i>
    <varray name="rec_basis" >
     <v>       0.03332223       0.00000000       0.00000000 </v>
     <v>       0.00000000       0.03333333       0.00000000 </v>
     <v>       0.00000000       0.00000000       0.03334445 </v>
    </varray>
   </crystal>
   <varray name="positions" >
    <v>       0.49983339       0.50000000       0.49988462 </v>
    <v>       0.49983339       0.50000000       0.54079561 </v>
   </varray>
  </structure>
  <varray name="primitive_index" >
   <v type="int" >        1 </v>
   <v type="int" >        2 </v>
  </varray>
 </primitive_cell>
 <kpoints>
  <generation param="Gamma">
   <v type="int" name="divisions">       1        1        1 </v>
   <v name="usershift">      0.00000000       0.00000000       0.00000000 </v>
   <v name="genvec1">      1.00000000       0.00000000       0.00000000 </v>
   <v name="genvec2">      0.00000000       1.00000000       0.00000000 </v>
   <v name="genvec3">      0.00000000       0.00000000       1.00000000 </v>
   <v name="shift">      0.00000000       0.00000000       0.00000000 </v>
  </generation>
  <varray name="kpointlist" >
   <v>       0.00000000       0.00000000       0.00000000 </v>
  </varray>
  <varray name="weights" >
   <v>       1.00000000 </v>
  </varray>
 </kpoints>
 <parameters>
  <separator name="general" >
   <i type="string" name="SYSTEM">unknown system</i>
   <i type="logical" name="LCOMPAT"> F  </i>
  </separator>
  <separator name="electronic" >
   <i type="string" name="PREC">accura</i>
   <i name="ENMAX">    450.00000000</i>
   <i name="ENAUG">    605.39200000</i>
   <i name="EDIFF">      0.00000040</i>
   <i type="int" name="IALGO">    38</i>
   <i type="int" name="IWAVPR">    11</i>
   <i type="int" name="NBANDS">    12</i>
   <i type="int" name="NBANDSLOW">    -1</i>
   <i type="int" name="NBANDSHIGH">    -1</i>
   <i name="NELECT">     12.00000000</i>
   <i type="int" name="TURBO">     0</i>
   <i type="int" name="IRESTART">     0</i>
   <i type="int" name="NREBOOT">     0</i>
   <i type="int" name="NMIN">     0</i>
   <i name="EREF">      0.00000000</i>
   <separator name="electronic smearing" >
    <i type="int" name="ISMEAR">     0</i>
    <i name="SIGMA">      0.05000000</i>
    <i name="KSPACING">      0.50000000</i>
    <i type="logical" name="KGAMMA"> T  </i>
    <i type="logical" name="KBLOWUP"> T  </i>
   </separator>
   <separator name="electronic projectors" >
    <i type="logical" name="LREAL"> T  </i>
    <v name="ROPT">     -0.00025000</v>
    <i type="int" name="LMAXPAW">  -100</i>
    <i type="int" name="LMAXMIX">     2</i>
    <i type="logical" name="NLSPLINE"> F  </i>
   </separator>
   <separator name="electronic startup" >
    <i type="int" name="ISTART">     1</i>
    <i type="int" name="ICHARG">     1</i>
    <i type="int" name="INIWAV">     1</i>
   </separator>
   <separator name="electronic spin" >
    <i type="int" name="ISPIN">     2</i>
    <i type="logical" name="LNONCOLLINEAR"> F  </i>
    <v name="MAGMOM">      1.00000000      1.00000000</v>
    <i name="NUPDOWN">      2.00000000</i>
    <i type="logical" name="LSORBIT"> F  </i>
    <v name="SAXIS">      0.00000000      0.00000000      1.00000000</v>
    <i type="logical" name="LSPIRAL"> F  </i>
    <v name="QSPIRAL">      0.00000000      0.00000000      0.00000000</v>
    <i type="logical" name="LZEROZ"> F  </i>
   </separator>
   <separator name="electronic exchange-correlation" >
    <i type="logical" name="LASPH"> T  </i>
    <i type="logical" name="LMETAGGA"> F  </i>
   </separator>
   <separator name="electronic convergence" >
    <i type="int" name="NELM">   120</i>
    <i type="int" name="NELMDL">     0</i>
    <i type="int" name="NELMIN">     2</i>
    <i name="ENINI">    450.00000000</i>
    <separator name="electronic convergence detail" >
     <i type="logical" name="LDIAG"> T  </i>
     <i type="logical" name="LSUBROT"> F  </i>
     <i name="WEIMIN">      0.00100000</i>
     <i name="EBREAK">      0.00000001</i>
     <i name="DEPER">      0.30000000</i>
     <i type="int" name="NRMM">     4</i>
     <i name="TIME">      0.40000000</i>
    </separator>
   </separator>
   <separator name="electronic mixer" >
    <i name="AMIX">      0.40000000</i>
    <i name="BMIX">      1.00000000</i>
    <i name="AMIN">      0.10000000</i>
    <i name="AMIX_MAG">      1.60000000</i>
    <i name="BMIX_MAG">      1.00000000</i>
    <separator name="electronic mixer details" >
     <i type="int" name="IMIX">     4</i>
     <i type="logical" name="MIXFIRST"> F  </i>
     <i type="int" name="MAXMIX">   -45</i>
     <i name="WC">    100.00000000</i>
     <i type="int" name="INIMIX">     1</i>
     <i type="int" name="MIXPRE">     1</i>
     <i type="int" name="MREMOVE">     5</i>
    </separator>
   </separator>
   <separator name="electronic dipolcorrection" >
    <i type="logical" name="LDIPOL"> F  </i>
    <i type="logical" name="LMONO"> F  </i>
    <i type="int" name="IDIPOL">     0</i>
    <i name="EPSILON">      1.00000000</i>
    <v name="DIPOL">   -100.00000000   -100.00000000   -100.00000000</v>
    <i name="EFIELD">      0.00000000</i>
   </separator>
  </separator>
  <separator name="grids" >
   <i type="int" name="NGX">   210</i>
   <i type="int" name="NGY">   210</i>
   <i type="int" name="NGZ">   210</i>
   <i type="int" name="NGXF">   420</i>
   <i type="int" name="NGYF">   420</i>
   <i type="int" name="NGZF">   420</i>
   <i type="logical" name="ADDGRID"> F  </i>
  </separator>
  <separator name="ionic" >
   <i type="int" name="NSW">   100</i>
   <i type="int" name="IBRION">     2</i>
   <i type="int" name="MDALGO">     0</i>
   <i type="int" name="ISIF">     2</i>
   <i name="PSTRESS">      0.00000000</i>
   <i name="EDIFFG">     -0.01000000</i>
   <i type="int" name="NFREE">     1</i>
   <i name="POTIM">      0.50000000</i>
   <i name="SMASS">     -3.00000000</i>
   <i name="SCALEE">      1.00000000</i>
  </separator>
  <separator name="ionic md" >
   <i name="TEBEG">      0.00010000</i>
   <i name="TEEND">      0.00010000</i>
   <i type="int" name="NBLOCK">     1</i>
   <i type="int" name="KBLOCK">   100</i>
   <i type="int" name="NPACO">   256</i>
   <i name="APACO">     16.00000000</i>
  </separator>
  <separator name="symmetry" >
   <i type="int" name="ISYM">     2</i>
   <i name="SYMPREC">      0.00001000</i>
  </separator>
  <separator name="dos" >
   <i type="int" name="LORBIT">    11</i>
   <v name="RWIGS">     -1.00000000</v>
   <i type="int" name="NEDOS">  2000</i>
   <i name="EMIN">     10.00000000</i>
   <i name="EMAX">    -10.00000000</i>
   <i name="EFERMI">      0.00000000</i>
  </separator>
  <separator name="writing" >
   <i type="int" name="NWRITE">     2</i>
   <i type="logical" name="LWAVE"> T  </i>
   <i type="logical" name="LDOWNSAMPLE"> F  </i>
   <i type="logical" name="LCHARG"> T  </i>
   <i type="logical" name="LPARD"> F  </i>
   <i type="logical" name="LVTOT"> F  </i>
   <i type="logical" name="LVHAR"> F  </i>
   <i type="logical" name="LELF"> F  </i>
   <i type="logical" name="LOPTICS"> F  </i>
   <v name="STM">      0.00000000      0.00000000      0.00000000      0.00000000      0.00000000      0.00000000      0.00000000</v>
  </separator>
  <separator name="performance" >
   <i type="int" name="NPAR">     6</i>
   <i type="int" name="NSIM">     4</i>
   <i type="int" name="NBLK">    -1</i>
   <i type="logical" name="LPLANE"> T  </i>
   <i type="logical" name="LSCALAPACK"> T  </i>
   <i type="logical" name="LSCAAWARE"> F  </i>
   <i type="logical" name="LSCALU"> F  </i>
   <i type="logical" name="LASYNC"> F  </i>
   <i type="logical" name="LORBITALREAL"> F  </i>
  </separator>
  <separator name="miscellaneous" >
   <i type="int" name="IDIOT">     3</i>
   <i type="int" name="PHON_NSTRUCT">    -1</i>
   <i type="logical" name="LMUSIC"> F  </i>
   <v name="POMASS">     16.00000000</v>
   <v name="DARWINR">      0.00000000</v>
   <v name="DARWINV">      1.00000000</v>
   <i type="logical" name="LCORR"> T  </i>
  </separator>
  <i type="logical" name="GGA_COMPAT"> T  </i>
  <i type="logical" name="LBERRY"> F  </i>
  <i type="int" name="ICORELEVEL">     0</i>
  <i type="logical" name="LDAU"> F  </i>
  <i type="int" name="I_CONSTRAINED_M">     0</i>
  <separator name="electronic exchange-correlation" >
   <i type="string" name="GGA">PS</i>
   <i type="int" name="VOSKOWN">     0</i>
   <i type="logical" name="LHFCALC"> F  </i>
   <i type="string" name="PRECFOCK"></i>
   <i type="logical" name="LSYMGRAD"> F  </i>
   <i type="logical" name="LHFONE"> F  </i>
   <i type="logical" name="LRHFCALC"> F  </i>
   <i type="logical" name="LTHOMAS"> F  </i>
   <i type="logical" name="LMODELHF"> F  </i>
   <i type="logical" name="LFOCKACE"> F  </i>
   <i name="ENCUT4O">     -1.00000000</i>
   <i type="int" name="EXXOEP">     0</i>
   <i type="int" name="FOURORBIT">     0</i>
   <i name="AEXX">      0.00000000</i>
   <i name="HFALPHA">      0.00000000</i>
   <i name="MCALPHA">      0.00000000</i>
   <i name="ALDAX">      1.00000000</i>
   <i name="AGGAX">      1.00000000</i>
   <i name="ALDAC">      1.00000000</i>
   <i name="AGGAC">      1.00000000</i>
   <i type="int" name="NKREDX">     1</i>
   <i type="int" name="NKREDY">     1</i>
   <i type="int" name="NKREDZ">     1</i>
   <i type="logical" name="SHIFTRED"> F  </i>
   <i type="logical" name="ODDONLY"> F  </i>
   <i type="logical" name="EVENONLY"> F  </i>
   <i type="int" name="LMAXFOCK">     0</i>
   <i type="int" name="NMAXFOCKAE">     0</i>
   <i type="logical" name="LFOCKAEDFT"> F  </i>
   <i name="HFSCREEN">      0.00000000</i>
   <i name="HFSCREENC">      0.00000000</i>
   <i type="int" name="NBANDSGWLOW">     0</i>
  </separator>
  <separator name="vdW DFT" >
   <i type="logical" name="LUSE_VDW"> F  </i>
   <i name="Zab_VDW">     -0.84910000</i>
   <i name="PARAM1">      0.12340000</i>
   <i name="PARAM2">      1.00000000</i>
   <i name="PARAM3">      0.00000000</i>
  </separator>
  <separator name="model GW" >
   <i type="int" name="MODEL_GW">     0</i>
   <i name="MODEL_EPS0">   8099.99910000</i>
   <i name="MODEL_ALPHA">      1.00000000</i>
  </separator>
  <separator name="linear response parameters" >
   <i type="logical" name="LEPSILON"> F  </i>
   <i type="logical" name="LRPA"> F  </i>
   <i type="logical" name="LNABLA"> F  </i>
   <i type="logical" name="LVEL"> F  </i>
   <i type="int" name="KINTER">     0</i>
   <i name="CSHIFT">      0.10000000</i>
   <i name="OMEGAMAX">     -1.00000000</i>
   <i name="DEG_THRESHOLD">      0.00200000</i>
   <i name="RTIME">     -0.10000000</i>
   <i name="WPLASMAI">      0.00000000</i>
   <v name="DFIELD">      0.00000000      0.00000000      0.00000000</v>
   <v name="WPLASMA">      0.00000000      0.00000000      0.00000000      0.00000000      0.00000000      0.00000000      0.00000000      0.00000000      0.00000000</v>
  </separator>
  <separator name="orbital magnetization" >
   <i type="logical" name="NUCIND"> F  </i>
   <v name="MAGPOS">      0.00000000      0.00000000      0.00000000</v>
   <i type="logical" name="LNICSALL"> T  </i>
   <i type="logical" name="ORBITALMAG"> F  </i>
   <i type="logical" name="LMAGBLOCH"> F  </i>
   <i type="logical" name="LCHIMAG"> F  </i>
   <i type="logical" name="LGAUGE"> T  </i>
   <i type="int" name="MAGATOM">     0</i>
   <v name="MAGDIPOL">      0.00000000      0.00000000      0.00000000</v>
   <v name="AVECCONST">      0.00000000      0.00000000      0.00000000</v>
  </separator>
  <separator name="response functions" >
   <i type="logical" name="LFINITE_TEMPERATURE"> F  </i>
   <i type="logical" name="LADDER"> F  </i>
   <i type="logical" name="LRPAFORCE"> F  </i>
   <i type="logical" name="LFXC"> F  </i>
   <i type="logical" name="LHARTREE"> T  </i>
   <i type="int" name="IBSE">     0</i>
   <v type="int" name="KPOINT">    -1     0     0     0</v>
   <i type="logical" name="LTCTC"> F  </i>
   <i type="logical" name="LTCTE"> F  </i>
   <i type="logical" name="LTETE"> F  </i>
   <i type="logical" name="LTRIPLET"> F  </i>
   <i type="logical" name="LFXCEPS"> F  </i>
   <i type="logical" name="LFXHEG"> F  </i>
   <i type="int" name="NATURALO">     2</i>
   <i type="logical" name="LHOLEGF"> F  </i>
   <i type="logical" name="L2ORDER"> F  </i>
   <i type="logical" name="LDMP1"> F  </i>
   <i type="logical" name="LMP2LT"> F  </i>
   <i type="logical" name="LSMP2LT"> F  </i>
   <i type="logical" name="LGWLF"> F  </i>
   <i name="ENCUTGW">     -2.00000000</i>
   <i name="ENCUTGWSOFT">     -2.00000000</i>
   <i name="ENCUTLF">     -1.00000000</i>
   <i type="logical" name="LESF_SPLINES"> F  </i>
   <i type="int" name="LMAXMP2">    -1</i>
   <i name="SCISSOR">      0.00000000</i>
   <i type="int" name="NOMEGA">     0</i>
   <i type="int" name="NOMEGAR">     0</i>
   <i type="int" name="NBANDSGW">    -1</i>
   <i type="int" name="NBANDSO">    -1</i>
   <i type="int" name="NBANDSV">    -1</i>
   <i type="int" name="NELM">   120</i>
   <i type="int" name="NELMHF">     1</i>
   <i type="int" name="DIM">     3</i>
   <i type="int" name="IESPILON">     4</i>
   <i type="int" name="ANTIRES">     0</i>
   <i name="OMEGAMAX">    -30.00000000</i>
   <i name="OMEGAMIN">    -30.00000000</i>
   <i name="OMEGATL">   -200.00000000</i>
   <i type="int" name="OMEGAGRID">     0</i>
   <i name="CSHIFT">     -0.10000000</i>
   <i type="logical" name="LSELFENERGY"> F  </i>
   <i type="logical" name="LSPECTRAL"> F  </i>
   <i type="logical" name="LSPECTRALGW"> F  </i>
   <i type="logical" name="LSINGLES"> F  </i>
   <i type="logical" name="LFERMIGW"> F  </i>
   <i type="logical" name="ODDONLYGW"> F  </i>
   <i type="logical" name="EVENONLYGW"> F  </i>
   <i type="int" name="NKREDLFX">     1</i>
   <i type="int" name="NKREDLFY">     1</i>
   <i type="int" name="NKREDLFZ">     1</i>
   <i type="int" name="MAXMEM">  2800</i>
   <i type="int" name="TELESCOPE">     0</i>
   <i type="int" name="NTAUPAR">    -1</i>
   <i type="int" name="NOMEGAPAR">    -1</i>
   <i name="DAMP_NEWTON">      0.80000001</i>
   <i name="LAMBDA">      1.00000000</i>
  </separator>
  <separator name="External order field" >
   <i name="OFIELD_KAPPA">      0.00000000</i>
   <v name="OFIELD_K">      0.00000000      0.00000000      0.00000000</v>
   <i name="OFIELD_Q6_NEAR">      0.00000000</i>
   <i name="OFIELD_Q6_FAR">      0.00000000</i>
   <i name="OFIELD_A">      0.00000000</i>
  </separator>
 </parameters>
 <atominfo>
  <atoms>       2 </atoms>
  <types>       1 </types>
  <array name="atoms" >
   <dimension dim="1">ion</dimension>
   <field type="string">element</field>
   <field type="int">atomtype</field>
   <set>
    <rc><c>O </c><c>   1</c></rc>
    <rc><c>O </c><c>   1</c></rc>
   </set>
  </array>
  <array name="atomtypes" >
   <dimension dim="1">type</dimension>
   <field type="int">atomspertype</field>
   <field type="string">element</field>
   <field>mass</field>
   <field>valence</field>
   <field type="string">pseudopotential</field>
   <set>
    <rc><c>   2</c><c>O </c><c>     16.00000000</c><c>      6.00000000</c><c>  PAW_PBE O 08Apr2002                   </c></rc>
   </set>
  </array>
 </atominfo>
 <structure name="initialpos" >
  <crystal>
   <varray name="basis" >
    <v>      30.01000000       0.00000000       0.00000000 </v>
    <v>       0.00000000      30.00000000       0.00000000 </v>
    <v>       0.00000000       0.00000000      29.99000000 </v>
   </varray>
   <i name="volume">  26999.99700000 </i>
   <varray name="rec_basis" >
    <v>       0.03332223       0.00000000       0.00000000 </v>
    <v>       0.00000000       0.03333333       0.00000000 </v>
    <v>       0.00000000       0.00000000       0.03334445 </v>
   </varray>
  </crystal>
  <varray name="positions" >
   <v>       0.49983339       0.50000000       0.49988462 </v>
   <v>       0.49983339       0.50000000       0.54079561 </v>
  </varray>
 </structure>
 <calculation>
  <scstep>
   <time name="dav">    3.70    3.73</time>
   <time name="total">   14.18   14.33</time>
   <energy>
    <i name="alphaZ">      0.02058585 </i>
    <i name="ewald">    324.52019903 </i>
    <i name="hartreedc">  -1050.07366903 </i>
    <i name="XCdc">     55.20714856 </i>
    <i name="pawpsdc">    692.29218979 </i>
    <i name="pawaedc">   -694.92182955 </i>
    <i name="eentropy">     -0.00000000 </i>
    <i name="bandstr">   -198.50319526 </i>
    <i name="atom">    861.23329366 </i>
    <i name="e_fr_energy">    -10.22527694 </i>
    <i name="e_wo_entrp">    -10.22527694 </i>
    <i name="e_0_energy">    -10.22527694 </i>
   </energy>
  </scstep>
  <scstep>
   <time name="dav">    4.91    4.95</time>
   <time name="total">   15.17   15.30</time>
   <energy>
    <i name="e_fr_energy">     -9.90304590 </i>
    <i name="e_wo_entrp">     -9.90304590 </i>
    <i name="e_0_energy">     -9.90304590 </i>
   </energy>
  </scstep>
  <scstep>
   <time name="dav">    4.30    4.33</time>
   <time name="total">   11.88   11.97</time>
   <energy>
    <i name="e_fr_energy">    -10.26646651 </i>
    <i name="e_wo_entrp">    -10.26646651 </i>
    <i name="e_0_energy">    -10.26646651 </i>
   </energy>
  </scstep>
  <scstep>
   <time name="dav">    4.34    4.37</time>
   <time name="total">   13.77   13.87</time>
   <energy>
    <i name="e_fr_energy">    -10.26070318 </i>
    <i name="e_wo_entrp">    -10.26070318 </i>
    <i name="e_0_energy">    -10.26070318 </i>
   </energy>
  </scstep>
  <scstep>
   <time name="dav">    2.81    2.83</time>
   <time name="total">   11.24   11.32</time>
   <energy>
    <i name="e_fr_energy">    -10.26825913 </i>
    <i name="e_wo_entrp">    -10.26825913 </i>
    <i name="e_0_energy">    -10.26825913 </i>
   </energy>
  </scstep>
  <scstep>
   <time name="dav">    5.72    5.76</time>
   <time name="total">   16.44   16.57</time>
   <energy>
    <i name="e_fr_energy">    -10.26921431 </i>
    <i name="e_wo_entrp">    -10.26921431 </i>
    <i name="e_0_energy">    -10.26921431 </i>
   </energy>
  </scstep>
  <scstep>
   <time name="dav">    4.09    4.12</time>
   <time name="total">   13.84   13.96</time>
   <energy>
    <i name="e_fr_energy">    -10.26947672 </i>
    <i name="e_wo_entrp">    -10.26947672 </i>
    <i name="e_0_energy">    -10.26947672 </i>
   </energy>
  </scstep>
  <scstep>
   <time name="dav">    2.39    2.41</time>
   <time name="total">   11.03   11.13</time>
   <energy>
    <i name="e_fr_energy">    -10.26959096 </i>
    <i name="e_wo_entrp">    -10.26959096 </i>
    <i name="e_0_energy">    -10.26959096 </i>
   </energy>
  </scstep>
  <scstep>
   <time name="dav">    3.27    3.30</time>
   <time name="total">   13.63   13.77</time>
   <energy>
    <i name="e_fr_energy">    -10.26967426 </i>
    <i name="e_wo_entrp">    -10.26967426 </i>
    <i name="e_0_energy">    -10.26967426 </i>
   </energy>
  </scstep>
  <scstep>
   <time name="dav">    3.64    3.67</time>
   <time name="total">   13.67   13.79</time>
   <energy>
    <i name="e_fr_energy">    -10.26977372 </i>
    <i name="e_wo_entrp">    -10.26977372 </i>
    <i name="e_0_energy">    -10.26977372 </i>
   </energy>
  </scstep>
  <scstep>
   <time name="dav">    2.65    2.67</time>
   <time name="total">   10.93   11.07</time>
   <energy>
    <i name="e_fr_energy">    -10.26987003 </i>
    <i name="e_wo_entrp">    -10.26987003 </i>
    <i name="e_0_energy">    -10.26987003 </i>
   </energy>
  </scstep>
  <scstep>
   <time name="dav">    4.38    4.41</time>
   <time name="total">   14.86   14.98</time>
   <energy>
    <i name="e_fr_energy">    -10.26992173 </i>
    <i name="e_wo_entrp">    -10.26992173 </i>
    <i name="e_0_energy">    -10.26992173 </i>
   </energy>
  </scstep>
  <scstep>
   <time name="dav">    3.57    3.60</time>
   <time name="total">   16.03   16.15</time>
   <energy>
    <i name="e_fr_energy">    -10.26998180 </i>
    <i name="e_wo_entrp">    -10.26998180 </i>
    <i name="e_0_energy">    -10.26998180 </i>
   </energy>
  </scstep>
  <scstep>
   <time name="dav">    5.25    5.29</time>
   <time name="total">   15.40   15.54</time>
   <energy>
    <i name="e_fr_energy">    -10.27000968 </i>
    <i name="e_wo_entrp">    -10.27000968 </i>
    <i name="e_0_energy">    -10.27000968 </i>
   </energy>
  </scstep>
  <scstep>
   <time name="dav">    2.12    2.13</time>
   <time name="total">   11.39   11.47</time>
   <energy>
    <i name="e_fr_energy">    -10.27004117 </i>
    <i name="e_wo_entrp">    -10.27004117 </i>
    <i name="e_0_energy">    -10.27004117 </i>
   </energy>
  </scstep>
  <scstep>
   <time name="dav">    6.40    6.45</time>
   <time name="total">   16.88   17.03</time>
   <energy>
    <i name="e_fr_energy">    -10.27005316 </i>
    <i name="e_wo_entrp">    -10.27005316 </i>
    <i name="e_0_energy">    -10.27005316 </i>
   </energy>
  </scstep>
  <scstep>
   <time name="dav">    4.00    4.03</time>
   <time name="total">   13.28   13.39</time>
   <energy>
    <i name="e_fr_energy">    -10.27006034 </i>
    <i name="e_wo_entrp">    -10.27006034 </i>
    <i name="e_0_energy">    -10.27006034 </i>
   </energy>
  </scstep>
  <scstep>
   <time name="dav">    3.42    3.44</time>
   <time name="total">   12.84   12.94</time>
   <energy>
    <i name="e_fr_energy">    -10.27006513 </i>
    <i name="e_wo_entrp">    -10.27006513 </i>
    <i name="e_0_energy">    -10.27006513 </i>
   </energy>
  </scstep>
  <scstep>
   <time name="dav">    5.77    5.82</time>
   <time name="total">   14.58   14.70</time>
   <energy>
    <i name="e_fr_energy">    -10.27006656 </i>
    <i name="e_wo_entrp">    -10.27006656 </i>
    <i name="e_0_energy">    -10.27006656 </i>
   </energy>
  </scstep>
  <scstep>
   <time name="dav">    4.70    4.74</time>
   <time name="total">   16.17   16.30</time>
   <energy>
    <i name="e_fr_energy">    -10.27006767 </i>
    <i name="e_wo_entrp">    -10.27006767 </i>
    <i name="e_0_energy">    -10.27006767 </i>
   </energy>
  </scstep>
  <scstep>
   <time name="dav">    2.47    2.48</time>
   <time name="total">    9.87    9.94</time>
   <energy>
    <i name="e_fr_energy">    -10.27006851 </i>
    <i name="e_wo_entrp">    -10.27006851 </i>
    <i name="e_0_energy">    -10.27006851 </i>
   </energy>
  </scstep>
  <scstep>
   <time name="dav">    3.16    3.18</time>
   <time name="total">    6.82    6.87</time>
   <energy>
    <i name="alphaZ">      0.02058585 </i>
    <i name="ewald">    324.52019903 </i>
    <i name="hartreedc">  -1056.19737837 </i>
    <i name="XCdc">     55.85537910 </i>
    <i name="pawpsdc">    887.18018809 </i>
    <i name="pawaedc">   -889.82109741 </i>
    <i name="eentropy">     -0.00000000 </i>
    <i name="bandstr">   -193.06123869 </i>
    <i name="atom">    861.23329366 </i>
    <i name="e_fr_energy">    -10.27006874 </i>
    <i name="e_wo_entrp">    -10.27006874 </i>
    <i name="e_0_energy">    -10.27006874 </i>
   </energy>
  </scstep>
  <structure>
   <crystal>
    <varray name="basis" >
     <v>      30.01000000       0.00000000       0.00000000 </v>
     <v>       0.00000000      30.00000000       0.00000000 </v>
     <v>       0.00000000       0.00000000      29.99000000 </v>
    </varray>
    <i name="volume">  26999.99700000 </i>
    <varray name="rec_basis" >
     <v>       0.03332223       0.00000000       0.00000000 </v>
     <v>       0.00000000       0.03333333       0.00000000 </v>
     <v>       0.00000000       0.00000000       0.03334445 </v>
    </varray>
   </crystal>
   <varray name="positions" >
    <v>       0.49983339       0.50000000       0.49988462 </v>
    <v>       0.49983339       0.50000000       0.54079561 </v>
   </varray>
  </structure>
  <varray name="forces" >
   <v>       0.00000000       0.00000000      -0.05878255 </v>
   <v>       0.00000000       0.00000000       0.05878255 </v>
  </varray>
  <varray name="stress" >
   <v>      -0.02893456       0.00000000       0.00000000 </v>
   <v>       0.00000000      -0.02889869       0.00000000 </v>
   <v>       0.00000000       0.00000000      -0.01646416 </v>
  </varray>
  <energy>
   <i name="e_fr_energy">    -10.27006874 </i>
   <i name="e_wo_entrp">    -10.27006874 </i>
   <i name="e_0_energy">    -10.27006874 </i>
  </energy>
  <time name="totalsc">  528.18  534.95</time>
 </calculation>
 <calculation>
  <scstep>
   <time name="dav">    2.66    2.68</time>
   <time name="total">   12.10   12.17</time>
   <energy>
    <i name="alphaZ">      0.02058585 </i>
    <i name="ewald">    322.57660298 </i>
    <i name="hartreedc">  -1054.77078940 </i>
    <i name="XCdc">     55.83055640 </i>
    <i name="pawpsdc">    887.17999008 </i>
    <i name="pawaedc">   -889.82089932 </i>
    <i name="eentropy">     -0.00000000 </i>
    <i name="bandstr">   -192.51847081 </i>
    <i name="atom">    861.23329366 </i>
    <i name="e_fr_energy">    -10.26913058 </i>
    <i name="e_wo_entrp">    -10.26913058 </i>
    <i name="e_0_energy">    -10.26913058 </i>
   </energy>
  </scstep>
  <scstep>
   <time name="dav">    3.54    3.56</time>
   <time name="total">   12.95   13.05</time>
   <energy>
    <i name="e_fr_energy">    -10.26882077 </i>
    <i name="e_wo_entrp">    -10.26882077 </i>
    <i name="e_0_energy">    -10.26882077 </i>
   </energy>
  </scstep>
  <scstep>
   <time name="dav">    8.15    8.20</time>
   <time name="total">   18.59   18.73</time>
   <energy>
    <i name="e_fr_energy">    -10.26909299 </i>
    <i name="e_wo_entrp">    -10.26909299 </i>
    <i name="e_0_energy">    -10.26909299 </i>
   </energy>
  </scstep>
  <scstep>
   <time name="dav">    2.99    3.01</time>
   <time name="total">   13.10   13.20</time>
   <energy>
    <i name="e_fr_energy">    -10.26915034 </i>
    <i name="e_wo_entrp">    -10.26915034 </i>
    <i name="e_0_energy">    -10.26915034 </i>
   </energy>
  </scstep>
  <scstep>
   <time name="dav">    4.47    4.50</time>
   <time name="total">   15.47   15.59</time>
   <energy>
    <i name="e_fr_energy">    -10.26917499 </i>
    <i name="e_wo_entrp">    -10.26917499 </i>
    <i name="e_0_energy">    -10.26917499 </i>
   </energy>
  </scstep>
  <scstep>
   <time name="dav">    4.39    4.42</time>
   <time name="total">   13.67   13.79</time>
   <energy>
    <i name="e_fr_energy">    -10.26918827 </i>
    <i name="e_wo_entrp">    -10.26918827 </i>
    <i name="e_0_energy">    -10.26918827 </i>
   </energy>
  </scstep>
  <scstep>
   <time name="dav">    7.84    7.89</time>
   <time name="total">   18.86   19.00</time>
   <energy>
    <i name="e_fr_energy">    -10.26919260 </i>
    <i name="e_wo_entrp">    -10.26919260 </i>
    <i name="e_0_energy">    -10.26919260 </i>
   </energy>
  </scstep>
  <scstep>
   <time name="dav">    3.93    3.96</time>
   <time name="total">   12.29   12.39</time>
   <energy>
    <i name="e_fr_energy">    -10.26919384 </i>
    <i name="e_wo_entrp">    -10.26919384 </i>
    <i name="e_0_energy">    -10.26919384 </i>
   </energy>
  </scstep>
  <scstep>
   <time name="dav">    6.66    6.70</time>
   <time name="total">   16.74   16.86</time>
   <energy>
    <i name="e_fr_energy">    -10.26919545 </i>
    <i name="e_wo_entrp">    -10.26919545 </i>
    <i name="e_0_energy">    -10.26919545 </i>
   </energy>
  </scstep>
  <scstep>
   <time name="dav">    5.53    5.57</time>
   <time name="total">   15.98   16.12</time>
   <energy>
    <i name="e_fr_energy">    -10.26919623 </i>
    <i name="e_wo_entrp">    -10.26919623 </i>
    <i name="e_0_energy">    -10.26919623 </i>
   </energy>
  </scstep>
  <scstep>
   <time name="dav">    2.31    2.33</time>
   <time name="total">    9.37    9.45</time>
   <energy>
    <i name="e_fr_energy">    -10.26919746 </i>
    <i name="e_wo_entrp">    -10.26919746 </i>
    <i name="e_0_energy">    -10.26919746 </i>
   </energy>
  </scstep>
  <scstep>
   <time name="dav">    7.43    7.48</time>
   <time name="total">   16.40   16.52</time>
   <energy>
    <i name="e_fr_energy">    -10.26919800 </i>
    <i name="e_wo_entrp">    -10.26919800 </i>
    <i name="e_0_energy">    -10.26919800 </i>
   </energy>
  </scstep>
  <scstep>
   <time name="dav">    4.36    4.40</time>
   <time name="total">   11.79   11.92</time>
   <energy>
    <i name="alphaZ">      0.02058585 </i>
    <i name="ewald">    322.57660298 </i>
    <i name="hartreedc">  -1054.50136734 </i>
    <i name="XCdc">     55.81325165 </i>
    <i name="pawpsdc">    882.87501735 </i>
    <i name="pawaedc">   -885.50756717 </i>
    <i name="eentropy">     -0.00000000 </i>
    <i name="bandstr">   -192.77901532 </i>
    <i name="atom">    861.23329366 </i>
    <i name="e_fr_energy">    -10.26919835 </i>
    <i name="e_wo_entrp">    -10.26919835 </i>
    <i name="e_0_energy">    -10.26919835 </i>
   </energy>
  </scstep>
  <structure>
   <crystal>
    <varray name="basis" >
     <v>      30.01000000       0.00000000       0.00000000 </v>
     <v>       0.00000000      30.00000000       0.00000000 </v>
     <v>       0.00000000       0.00000000      29.99000000 </v>
    </varray>
    <i name="volume">  26999.99700000 </i>
    <varray name="rec_basis" >
     <v>       0.03332223       0.00000000       0.00000000 </v>
     <v>       0.00000000       0.03333333       0.00000000 </v>
     <v>       0.00000000       0.00000000       0.03334445 </v>
    </varray>
   </crystal>
   <varray name="positions" >
    <v>       0.49983339       0.50000000       0.49979006 </v>
    <v>       0.49983339       0.50000000       0.54089017 </v>
   </varray>
  </structure>
  <varray name="forces" >
   <v>       0.00000000       0.00000000       0.36301228 </v>
   <v>       0.00000000      -0.00000000      -0.36301228 </v>
  </varray>
  <varray name="stress" >
   <v>      -0.02893162       0.00000000       0.00000000 </v>
   <v>       0.00000000      -0.02893039       0.00000000 </v>
   <v>       0.00000000       0.00000000      -0.04718377 </v>
  </varray>
  <energy>
   <i name="e_fr_energy">    -10.26919835 </i>
   <i name="e_wo_entrp">    -10.26919835 </i>
   <i name="e_0_energy">    -10.26919835 </i>
  </energy>
  <time name="totalsc">  210.12  211.76</time>
 </calculation>
 <calculation>
  <scstep>
   <time name="dav">    2.46    2.48</time>
   <time name="total">   11.63   11.71</time>
   <energy>
    <i name="alphaZ">      0.02058585 </i>
    <i name="ewald">    324.25267736 </i>
    <i name="hartreedc">  -1055.73200923 </i>
    <i name="XCdc">     55.83467959 </i>
    <i name="pawpsdc">    882.87486479 </i>
    <i name="pawaedc">   -885.50741411 </i>
    <i name="eentropy">     -0.00000000 </i>
    <i name="bandstr">   -193.24671740 </i>
    <i name="atom">    861.23329366 </i>
    <i name="e_fr_energy">    -10.27003948 </i>
    <i name="e_wo_entrp">    -10.27003948 </i>
    <i name="e_0_energy">    -10.27003948 </i>
   </energy>
  </scstep>
  <scstep>
   <time name="dav">    5.10    5.14</time>
   <time name="total">   18.58   18.76</time>
   <energy>
    <i name="e_fr_energy">    -10.26981058 </i>
    <i name="e_wo_entrp">    -10.26981058 </i>
    <i name="e_0_energy">    -10.26981058 </i>
   </energy>
  </scstep>
  <scstep>
   <time name="dav">    5.17    5.21</time>
   <time name="total">   14.52   14.64</time>
   <energy>
    <i name="e_fr_energy">    -10.27000986 </i>
    <i name="e_wo_entrp">    -10.27000986 </i>
    <i name="e_0_energy">    -10.27000986 </i>
   </energy>
  </scstep>
  <scstep>
   <time name="dav">    3.01    3.03</time>
   <time name="total">   13.36   13.48</time>
   <energy>
    <i name="e_fr_energy">    -10.27005462 </i>
    <i name="e_wo_entrp">    -10.27005462 </i>
    <i name="e_0_energy">    -10.27005462 </i>
   </energy>
  </scstep>
  <scstep>
   <time name="dav">    5.19    5.23</time>
   <time name="total">   15.37   15.50</time>
   <energy>
    <i name="e_fr_energy">    -10.27007415 </i>
    <i name="e_wo_entrp">    -10.27007415 </i>
    <i name="e_0_energy">    -10.27007415 </i>
   </energy>
  </scstep>
  <scstep>
   <time name="dav">    6.78    6.83</time>
   <time name="total">   15.27   15.38</time>
   <energy>
    <i name="e_fr_energy">    -10.27008274 </i>
    <i name="e_wo_entrp">    -10.27008274 </i>
    <i name="e_0_energy">    -10.27008274 </i>
   </energy>
  </scstep>
  <scstep>
   <time name="dav">    3.48    3.50</time>
   <time name="total">   12.52   12.63</time>
   <energy>
    <i name="e_fr_energy">    -10.27008637 </i>
    <i name="e_wo_entrp">    -10.27008637 </i>
    <i name="e_0_energy">    -10.27008637 </i>
   </energy>
  </scstep>
  <scstep>
   <time name="dav">    8.57    8.64</time>
   <time name="total">   20.60   20.76</time>
   <energy>
    <i name="e_fr_energy">    -10.27008781 </i>
    <i name="e_wo_entrp">    -10.27008781 </i>
    <i name="e_0_energy">    -10.27008781 </i>
   </energy>
  </scstep>
  <scstep>
   <time name="dav">    3.26    3.28</time>
   <time name="total">   11.35   11.44</time>
   <energy>
    <i name="e_fr_energy">    -10.27008941 </i>
    <i name="e_wo_entrp">    -10.27008941 </i>
    <i name="e_0_energy">    -10.27008941 </i>
   </energy>
  </scstep>
  <scstep>
   <time name="dav">    6.27    6.31</time>
   <time name="total">   17.20   17.34</time>
   <energy>
    <i name="e_fr_energy">    -10.27008996 </i>
    <i name="e_wo_entrp">    -10.27008996 </i>
    <i name="e_0_energy">    -10.27008996 </i>
   </energy>
  </scstep>
  <scstep>
   <time name="dav">    3.80    3.83</time>
   <time name="total">   14.67   14.83</time>
   <energy>
    <i name="e_fr_energy">    -10.27009089 </i>
    <i name="e_wo_entrp">    -10.27009089 </i>
    <i name="e_0_energy">    -10.27009089 </i>
   </energy>
  </scstep>
  <scstep>
   <time name="dav">    4.32    4.35</time>
   <time name="total">   15.92   16.05</time>
   <energy>
    <i name="e_fr_energy">    -10.27009142 </i>
    <i name="e_wo_entrp">    -10.27009142 </i>
    <i name="e_0_energy">    -10.27009142 </i>
   </energy>
  </scstep>
  <scstep>
   <time name="dav">    3.16    3.18</time>
   <time name="total">    8.09    8.16</time>
   <energy>
    <i name="alphaZ">      0.02058585 </i>
    <i name="ewald">    324.25267736 </i>
    <i name="hartreedc">  -1055.96417590 </i>
    <i name="XCdc">     55.84957358 </i>
    <i name="pawpsdc">    886.58469829 </i>
    <i name="pawaedc">   -889.22444637 </i>
    <i name="eentropy">     -0.00000000 </i>
    <i name="bandstr">   -193.02229823 </i>
    <i name="atom">    861.23329366 </i>
    <i name="e_fr_energy">    -10.27009176 </i>
    <i name="e_wo_entrp">    -10.27009176 </i>
    <i name="e_0_energy">    -10.27009176 </i>
   </energy>
  </scstep>
  <structure>
   <crystal>
    <varray name="basis" >
     <v>      30.01000000       0.00000000       0.00000000 </v>
     <v>       0.00000000      30.00000000       0.00000000 </v>
     <v>       0.00000000       0.00000000      29.99000000 </v>
    </varray>
    <i name="volume">  26999.99700000 </i>
    <varray name="rec_basis" >
     <v>       0.03332223       0.00000000       0.00000000 </v>
     <v>       0.00000000       0.03333333       0.00000000 </v>
     <v>       0.00000000       0.00000000       0.03334445 </v>
    </varray>
   </crystal>
   <varray name="positions" >
    <v>       0.49983339       0.50000000       0.49987165 </v>
    <v>       0.49983339       0.50000000       0.54080857 </v>
   </varray>
  </structure>
  <varray name="forces" >
   <v>       0.00000000       0.00000000      -0.00001665 </v>
   <v>       0.00000000       0.00000000       0.00001665 </v>
  </varray>
  <varray name="stress" >
   <v>      -0.02893150       0.00000000       0.00000000 </v>
   <v>       0.00000000      -0.02889612       0.00000000 </v>
   <v>       0.00000000      -0.00000000      -0.02072194 </v>
  </varray>
  <energy>
   <i name="e_fr_energy">    -10.27009176 </i>
   <i name="e_wo_entrp">    -10.27009176 </i>
   <i name="e_0_energy">    -10.27009176 </i>
  </energy>
  <time name="totalsc">  213.82  215.65</time>
  <eigenvalues>
   <array>
    <dimension dim="1">band</dimension>
    <dimension dim="2">kpoint</dimension>
    <dimension dim="3">spin</dimension>
    <field>eigene</field>
    <field>occ</field>
    <set>
     <set comment="spin 1">
      <set comment="kpoint 1">
       <r>  -32.6568    1.0000 </r>
       <r>  -20.5227    1.0000 </r>
       <r>  -13.4926    1.0000 </r>
       <r>  -13.3886    1.0000 </r>
       <r>  -13.3886    1.0000 </r>
       <r>   -6.9301    1.0000 </r>
       <r>   -6.9301    1.0000 </r>
       <r>   -0.1403    0.0000 </r>
       <r>    0.0274    0.0000 </r>
       <r>    0.1476    0.0000 </r>
       <r>    0.1532    0.0000 </r>
       <r>    0.1533    0.0000 </r>
      </set>
     </set>
     <set comment="spin 2">
      <set comment="kpoint 1">
       <r>  -31.3973    1.0000 </r>
       <r>  -18.7398    1.0000 </r>
       <r>  -12.4719    1.0000 </r>
       <r>  -11.5519    1.0000 </r>
       <r>  -11.5519    1.0000 </r>
       <r>   -4.6724    0.0000 </r>
       <r>   -4.6723    0.0000 </r>
       <r>   -0.0625    0.0000 </r>
       <r>    0.0516    0.0000 </r>
       <r>    0.1577    0.0000 </r>
       <r>    0.1586    0.0000 </r>
       <r>    0.1587    0.0000 </r>
      </set>
     </set>
    </set>
   </array>
  </eigenvalues>
  <separator name="orbital magnetization" >
   <v name="MAGDIPOLOUT">      0.00000000      0.00000000      0.00000000</v>
  </separator>
  <dos>
   <i name="efermi">    -11.31025237 </i>
   <total>
    <array>
     <dimension dim="1">gridpoints</dimension>
     <dimension dim="2">spin</dimension>
     <field>energy</field>
     <field>total</field>
     <field>integrated</field>
     <set>
      <set comment="spin 1">
       <r>   -34.2976     0.0000     0.0000 </r>
       <r>   -34.2795     0.0000     0.0000 </r>
       <r>   -34.2615     0.0000     0.0000 </r>
       <r>   -34.2434     0.0000     0.0000 </r>
       <r>   -34.2254     0.0000     0.0000 </r>
       <r>   -34.2073     0.0000     0.0000 </r>
       <r>   -34.1893     0.0000     0.0000 </r>
       <r>   -34.1712     0.0000     0.0000 </r>
       <r>   -34.1531     0.0000     0.0000 </r>
       <r>   -34.1351     0.0000     0.0000 </r>
       <r>   -34.1170     0.0000     0.0000 </r>
       <r>   -34.0990     0.0000     0.0000 </r>
       <r>   -34.0809     0.0000     0.0000 </r>
       <r>   -34.0629     0.0000     0.0000 </r>
       <r>   -34.0448     0.0000     0.0000 </r>
       <r>   -34.0267     0.0000     0.0000 </r>
       <r>   -34.0087     0.0000     0.0000 </r>
       <r>   -33.9906     0.0000     0.0000 </r>
       <r>   -33.9726     0.0000     0.0000 </r>
       <r>   -33.9545     0.0000     0.0000 </r>
       <r>   -33.9364     0.0000     0.0000 </r>
       <r>   -33.9184     0.0000     0.0000 </r>
       <r>   -33.9003     0.0000     0.0000 </r>
       <r>   -33.8823     0.0000     0.0000 </r>
       <r>   -33.8642     0.0000     0.0000 </r>
       <r>   -33.8462     0.0000     0.0000 </r>
       <r>   -33.8281     0.0000     0.0000 </r>
       <r>   -33.8100     0.0000     0.0000 </r>
       <r>   -33.7920     0.0000     0.0000 </r>
       <r>   -33.7739     0.0000     0.0000 </r>
       <r>   -33.7559     0.0000     0.0000 </r>
       <r>   -33.7378     0.0000     0.0000 </r>
       <r>   -33.7198     0.0000     0.0000 </r>
       <r>   -33.7017     0.0000     0.0000 </r>
       <r>   -33.6836     0.0000     0.0000 </r>
       <r>   -33.6656     0.0000     0.0000 </r>
       <r>   -33.6475     0.0000     0.0000 </r>
       <r>   -33.6295     0.0000     0.0000 </r>
       <r>   -33.6114     0.0000     0.0000 </r>
       <r>   -33.5934     0.0000     0.0000 </r>
       <r>   -33.5753     0.0000     0.0000 </r>
       <r>   -33.5572     0.0000     0.0000 </r>
       <r>   -33.5392     0.0000     0.0000 </r>
       <r>   -33.5211     0.0000     0.0000 </r>
       <r>   -33.5031     0.0000     0.0000 </r>
       <r>   -33.4850     0.0000     0.0000 </r>
       <r>   -33.4670     0.0000     0.0000 </r>
       <r>   -33.4489     0.0000     0.0000 </r>
       <r>   -33.4308     0.0000     0.0000 </r>
       <r>   -33.4128     0.0000     0.0000 </r>
       <r>   -33.3947     0.0000     0.0000 </r>
       <r>   -33.3767     0.0000     0.0000 </r>
       <r>   -33.3586     0.0000     0.0000 </r>
       <r>   -33.3405     0.0000     0.0000 </r>
       <r>   -33.3225     0.0000     0.0000 </r>
       <r>   -33.3044     0.0000     0.0000 </r>
       <r>   -33.2864     0.0000     0.0000 </r>
       <r>   -33.2683     0.0000     0.0000 </r>
       <r>   -33.2503     0.0000     0.0000 </r>
       <r>   -33.2322     0.0000     0.0000 </r>
       <r>   -33.2141     0.0000     0.0000 </r>
       <r>   -33.1961     0.0000     0.0000 </r>
       <r>   -33.1780     0.0000     0.0000 </r>
       <r>   -33.1600     0.0000     0.0000 </r>
       <r>   -33.1419     0.0000     0.0000 </r>
       <r>   -33.1239     0.0000     0.0000 </r>
       <r>   -33.1058     0.0000     0.0000 </r>
       <r>   -33.0877     0.0000     0.0000 </r>
       <r>   -33.0697     0.0000     0.0000 </r>
       <r>   -33.0516     0.0000     0.0000 </r>
       <r>   -33.0336     0.0000     0.0000 </r>
       <r>   -33.0155     0.0000     0.0000 </r>
       <r>   -32.9975     0.0000     0.0000 </r>
       <r>   -32.9794     0.0000     0.0000 </r>
       <r>   -32.9613     0.0000     0.0000 </r>
       <r>   -32.9433     0.0000     0.0000 </r>
       <r>   -32.9252     0.0000     0.0000 </r>
       <r>   -32.9072     0.0000     0.0000 </r>
       <r>   -32.8891     0.0000     0.0000 </r>
       <r>   -32.8711     0.0000     0.0000 </r>
       <r>   -32.8530     0.0000     0.0000 </r>
       <r>   -32.8349     0.0000     0.0000 </r>
       <r>   -32.8169     0.0003     0.0000 </r>
       <r>   -32.7988     0.0029     0.0001 </r>
       <r>   -32.7808     0.0220     0.0005 </r>
       <r>   -32.7627     0.1268     0.0027 </r>
       <r>   -32.7446     0.5672     0.0130 </r>
       <r>   -32.7266     1.9642     0.0485 </r>
       <r>   -32.7085     5.2677     0.1436 </r>
       <r>   -32.6905    10.9426     0.3412 </r>
       <r>   -32.6724    17.6084     0.6591 </r>
       <r>   -32.6544    21.9511     1.0555 </r>
       <r>   -32.6363    21.2002     1.4384 </r>
       <r>   -32.6182    15.8625     1.7248 </r>
       <r>   -32.6002     9.1945     1.8908 </r>
       <r>   -32.5821     4.1284     1.9654 </r>
       <r>   -32.5641     1.4357     1.9913 </r>
       <r>   -32.5460     0.3867     1.9983 </r>
       <r>   -32.5280     0.0806     1.9997 </r>
       <r>   -32.5099     0.0130     2.0000 </r>
       <r>   -32.4918     0.0016     2.0000 </r>
       <r>   -32.4738     0.0002     2.0000 </r>
       <r>   -32.4557     0.0000     2.0000 </r>
       <r>   -32.4377     0.0000     2.0000 </r>
       <r>   -32.4196     0.0000     2.0000 </r>
       <r>   -32.4016     0.0000     2.0000 </r>
       <r>   -32.3835     0.0000     2.0000 </r>
       <r>   -32.3654     0.0000     2.0000 </r>
       <r>   -32.3474     0.0000     2.0000 </r>
       <r>   -32.3293     0.0000     2.0000 </r>
       <r>   -32.3113     0.0000     2.0000 </r>
       <r>   -32.2932     0.0000     2.0000 </r>
       <r>   -32.2752     0.0000     2.0000 </r>
       <r>   -32.2571     0.0000     2.0000 </r>
       <r>   -32.2390     0.0000     2.0000 </r>
       <r>   -32.2210     0.0000     2.0000 </r>
       <r>   -32.2029     0.0000     2.0000 </r>
       <r>   -32.1849     0.0000     2.0000 </r>
       <r>   -32.1668     0.0000     2.0000 </r>
       <r>   -32.1487     0.0000     2.0000 </r>
       <r>   -32.1307     0.0000     2.0000 </r>
       <r>   -32.1126     0.0000     2.0000 </r>
       <r>   -32.0946     0.0000     2.0000 </r>
       <r>   -32.0765     0.0000     2.0000 </r>
       <r>   -32.0585     0.0000     2.0000 </r>
       <r>   -32.0404     0.0000     2.0000 </r>
       <r>   -32.0223     0.0000     2.0000 </r>
       <r>   -32.0043     0.0000     2.0000 </r>
       <r>   -31.9862     0.0000     2.0000 </r>
       <r>   -31.9682     0.0000     2.0000 </r>
       <r>   -31.9501     0.0000     2.0000 </r>
       <r>   -31.9321     0.0000     2.0000 </r>
       <r>   -31.9140     0.0000     2.0000 </r>
       <r>   -31.8959     0.0000     2.0000 </r>
       <r>   -31.8779     0.0000     2.0000 </r>
       <r>   -31.8598     0.0000     2.0000 </r>
       <r>   -31.8418     0.0000     2.0000 </r>
       <r>   -31.8237     0.0000     2.0000 </r>
       <r>   -31.8057     0.0000     2.0000 </r>
       <r>   -31.7876     0.0000     2.0000 </r>
       <r>   -31.7695     0.0000     2.0000 </r>
       <r>   -31.7515     0.0000     2.0000 </r>
       <r>   -31.7334     0.0000     2.0000 </r>
       <r>   -31.7154     0.0000     2.0000 </r>
       <r>   -31.6973     0.0000     2.0000 </r>
       <r>   -31.6792     0.0000     2.0000 </r>
       <r>   -31.6612     0.0000     2.0000 </r>
       <r>   -31.6431     0.0000     2.0000 </r>
       <r>   -31.6251     0.0000     2.0000 </r>
       <r>   -31.6070     0.0000     2.0000 </r>
       <r>   -31.5890     0.0000     2.0000 </r>
       <r>   -31.5709     0.0000     2.0000 </r>
       <r>   -31.5528     0.0000     2.0000 </r>
       <r>   -31.5348     0.0000     2.0000 </r>
       <r>   -31.5167     0.0000     2.0000 </r>
       <r>   -31.4987     0.0000     2.0000 </r>
       <r>   -31.4806     0.0000     2.0000 </r>
       <r>   -31.4626     0.0000     2.0000 </r>
       <r>   -31.4445     0.0000     2.0000 </r>
       <r>   -31.4264     0.0000     2.0000 </r>
       <r>   -31.4084     0.0000     2.0000 </r>
       <r>   -31.3903     0.0000     2.0000 </r>
       <r>   -31.3723     0.0000     2.0000 </r>
       <r>   -31.3542     0.0000     2.0000 </r>
       <r>   -31.3362     0.0000     2.0000 </r>
       <r>   -31.3181     0.0000     2.0000 </r>
       <r>   -31.3000     0.0000     2.0000 </r>
       <r>   -31.2820     0.0000     2.0000 </r>
       <r>   -31.2639     0.0000     2.0000 </r>
       <r>   -31.2459     0.0000     2.0000 </r>
       <r>   -31.2278     0.0000     2.0000 </r>
       <r>   -31.2098     0.0000     2.0000 </r>
       <r>   -31.1917     0.0000     2.0000 </r>
       <r>   -31.1736     0.0000     2.0000 </r>
       <r>   -31.1556     0.0000     2.0000 </r>
       <r>   -31.1375     0.0000     2.0000 </r>
       <r>   -31.1195     0.0000     2.0000 </r>
       <r>   -31.1014     0.0000     2.0000 </r>
       <r>   -31.0833     0.0000     2.0000 </r>
       <r>   -31.0653     0.0000     2.0000 </r>
       <r>   -31.0472     0.0000     2.0000 </r>
       <r>   -31.0292     0.0000     2.0000 </r>
       <r>   -31.0111     0.0000     2.0000 </r>
       <r>   -30.9931     0.0000     2.0000 </r>
       <r>   -30.9750     0.0000     2.0000 </r>
       <r>   -30.9569     0.0000     2.0000 </r>
       <r>   -30.9389     0.0000     2.0000 </r>
       <r>   -30.9208     0.0000     2.0000 </r>
       <r>   -30.9028     0.0000     2.0000 </r>
       <r>   -30.8847     0.0000     2.0000 </r>
       <r>   -30.8667     0.0000     2.0000 </r>
       <r>   -30.8486     0.0000     2.0000 </r>
       <r>   -30.8305     0.0000     2.0000 </r>
       <r>   -30.8125     0.0000     2.0000 </r>
       <r>   -30.7944     0.0000     2.0000 </r>
       <r>   -30.7764     0.0000     2.0000 </r>
       <r>   -30.7583     0.0000     2.0000 </r>
       <r>   -30.7403     0.0000     2.0000 </r>
       <r>   -30.7222     0.0000     2.0000 </r>
       <r>   -30.7041     0.0000     2.0000 </r>
       <r>   -30.6861     0.0000     2.0000 </r>
       <r>   -30.6680     0.0000     2.0000 </r>
       <r>   -30.6500     0.0000     2.0000 </r>
       <r>   -30.6319     0.0000     2.0000 </r>
       <r>   -30.6139     0.0000     2.0000 </r>
       <r>   -30.5958     0.0000     2.0000 </r>
       <r>   -30.5777     0.0000     2.0000 </r>
       <r>   -30.5597     0.0000     2.0000 </r>
       <r>   -30.5416     0.0000     2.0000 </r>
       <r>   -30.5236     0.0000     2.0000 </r>
       <r>   -30.5055     0.0000     2.0000 </r>
       <r>   -30.4874     0.0000     2.0000 </r>
       <r>   -30.4694     0.0000     2.0000 </r>
       <r>   -30.4513     0.0000     2.0000 </r>
       <r>   -30.4333     0.0000     2.0000 </r>
       <r>   -30.4152     0.0000     2.0000 </r>
       <r>   -30.3972     0.0000     2.0000 </r>
       <r>   -30.3791     0.0000     2.0000 </r>
       <r>   -30.3610     0.0000     2.0000 </r>
       <r>   -30.3430     0.0000     2.0000 </r>
       <r>   -30.3249     0.0000     2.0000 </r>
       <r>   -30.3069     0.0000     2.0000 </r>
       <r>   -30.2888     0.0000     2.0000 </r>
       <r>   -30.2708     0.0000     2.0000 </r>
       <r>   -30.2527     0.0000     2.0000 </r>
       <r>   -30.2346     0.0000     2.0000 </r>
       <r>   -30.2166     0.0000     2.0000 </r>
       <r>   -30.1985     0.0000     2.0000 </r>
       <r>   -30.1805     0.0000     2.0000 </r>
       <r>   -30.1624     0.0000     2.0000 </r>
       <r>   -30.1444     0.0000     2.0000 </r>
       <r>   -30.1263     0.0000     2.0000 </r>
       <r>   -30.1082     0.0000     2.0000 </r>
       <r>   -30.0902     0.0000     2.0000 </r>
       <r>   -30.0721     0.0000     2.0000 </r>
       <r>   -30.0541     0.0000     2.0000 </r>
       <r>   -30.0360     0.0000     2.0000 </r>
       <r>   -30.0180     0.0000     2.0000 </r>
       <r>   -29.9999     0.0000     2.0000 </r>
       <r>   -29.9818     0.0000     2.0000 </r>
       <r>   -29.9638     0.0000     2.0000 </r>
       <r>   -29.9457     0.0000     2.0000 </r>
       <r>   -29.9277     0.0000     2.0000 </r>
       <r>   -29.9096     0.0000     2.0000 </r>
       <r>   -29.8915     0.0000     2.0000 </r>
       <r>   -29.8735     0.0000     2.0000 </r>
       <r>   -29.8554     0.0000     2.0000 </r>
       <r>   -29.8374     0.0000     2.0000 </r>
       <r>   -29.8193     0.0000     2.0000 </r>
       <r>   -29.8013     0.0000     2.0000 </r>
       <r>   -29.7832     0.0000     2.0000 </r>
       <r>   -29.7651     0.0000     2.0000 </r>
       <r>   -29.7471     0.0000     2.0000 </r>
       <r>   -29.7290     0.0000     2.0000 </r>
       <r>   -29.7110     0.0000     2.0000 </r>
       <r>   -29.6929     0.0000     2.0000 </r>
       <r>   -29.6749     0.0000     2.0000 </r>
       <r>   -29.6568     0.0000     2.0000 </r>
       <r>   -29.6387     0.0000     2.0000 </r>
       <r>   -29.6207     0.0000     2.0000 </r>
       <r>   -29.6026     0.0000     2.0000 </r>
       <r>   -29.5846     0.0000     2.0000 </r>
       <r>   -29.5665     0.0000     2.0000 </r>
       <r>   -29.5485     0.0000     2.0000 </r>
       <r>   -29.5304     0.0000     2.0000 </r>
       <r>   -29.5123     0.0000     2.0000 </r>
       <r>   -29.4943     0.0000     2.0000 </r>
       <r>   -29.4762     0.0000     2.0000 </r>
       <r>   -29.4582     0.0000     2.0000 </r>
       <r>   -29.4401     0.0000     2.0000 </r>
       <r>   -29.4221     0.0000     2.0000 </r>
       <r>   -29.4040     0.0000     2.0000 </r>
       <r>   -29.3859     0.0000     2.0000 </r>
       <r>   -29.3679     0.0000     2.0000 </r>
       <r>   -29.3498     0.0000     2.0000 </r>
       <r>   -29.3318     0.0000     2.0000 </r>
       <r>   -29.3137     0.0000     2.0000 </r>
       <r>   -29.2956     0.0000     2.0000 </r>
       <r>   -29.2776     0.0000     2.0000 </r>
       <r>   -29.2595     0.0000     2.0000 </r>
       <r>   -29.2415     0.0000     2.0000 </r>
       <r>   -29.2234     0.0000     2.0000 </r>
       <r>   -29.2054     0.0000     2.0000 </r>
       <r>   -29.1873     0.0000     2.0000 </r>
       <r>   -29.1692     0.0000     2.0000 </r>
       <r>   -29.1512     0.0000     2.0000 </r>
       <r>   -29.1331     0.0000     2.0000 </r>
       <r>   -29.1151     0.0000     2.0000 </r>
       <r>   -29.0970     0.0000     2.0000 </r>
       <r>   -29.0790     0.0000     2.0000 </r>
       <r>   -29.0609     0.0000     2.0000 </r>
       <r>   -29.0428     0.0000     2.0000 </r>
       <r>   -29.0248     0.0000     2.0000 </r>
       <r>   -29.0067     0.0000     2.0000 </r>
       <r>   -28.9887     0.0000     2.0000 </r>
       <r>   -28.9706     0.0000     2.0000 </r>
       <r>   -28.9526     0.0000     2.0000 </r>
       <r>   -28.9345     0.0000     2.0000 </r>
       <r>   -28.9164     0.0000     2.0000 </r>
       <r>   -28.8984     0.0000     2.0000 </r>
       <r>   -28.8803     0.0000     2.0000 </r>
       <r>   -28.8623     0.0000     2.0000 </r>
       <r>   -28.8442     0.0000     2.0000 </r>
       <r>   -28.8262     0.0000     2.0000 </r>
       <r>   -28.8081     0.0000     2.0000 </r>
       <r>   -28.7900     0.0000     2.0000 </r>
       <r>   -28.7720     0.0000     2.0000 </r>
       <r>   -28.7539     0.0000     2.0000 </r>
       <r>   -28.7359     0.0000     2.0000 </r>
       <r>   -28.7178     0.0000     2.0000 </r>
       <r>   -28.6997     0.0000     2.0000 </r>
       <r>   -28.6817     0.0000     2.0000 </r>
       <r>   -28.6636     0.0000     2.0000 </r>
       <r>   -28.6456     0.0000     2.0000 </r>
       <r>   -28.6275     0.0000     2.0000 </r>
       <r>   -28.6095     0.0000     2.0000 </r>
       <r>   -28.5914     0.0000     2.0000 </r>
       <r>   -28.5733     0.0000     2.0000 </r>
       <r>   -28.5553     0.0000     2.0000 </r>
       <r>   -28.5372     0.0000     2.0000 </r>
       <r>   -28.5192     0.0000     2.0000 </r>
       <r>   -28.5011     0.0000     2.0000 </r>
       <r>   -28.4831     0.0000     2.0000 </r>
       <r>   -28.4650     0.0000     2.0000 </r>
       <r>   -28.4469     0.0000     2.0000 </r>
       <r>   -28.4289     0.0000     2.0000 </r>
       <r>   -28.4108     0.0000     2.0000 </r>
       <r>   -28.3928     0.0000     2.0000 </r>
       <r>   -28.3747     0.0000     2.0000 </r>
       <r>   -28.3567     0.0000     2.0000 </r>
       <r>   -28.3386     0.0000     2.0000 </r>
       <r>   -28.3205     0.0000     2.0000 </r>
       <r>   -28.3025     0.0000     2.0000 </r>
       <r>   -28.2844     0.0000     2.0000 </r>
       <r>   -28.2664     0.0000     2.0000 </r>
       <r>   -28.2483     0.0000     2.0000 </r>
       <r>   -28.2302     0.0000     2.0000 </r>
       <r>   -28.2122     0.0000     2.0000 </r>
       <r>   -28.1941     0.0000     2.0000 </r>
       <r>   -28.1761     0.0000     2.0000 </r>
       <r>   -28.1580     0.0000     2.0000 </r>
       <r>   -28.1400     0.0000     2.0000 </r>
       <r>   -28.1219     0.0000     2.0000 </r>
       <r>   -28.1038     0.0000     2.0000 </r>
       <r>   -28.0858     0.0000     2.0000 </r>
       <r>   -28.0677     0.0000     2.0000 </r>
       <r>   -28.0497     0.0000     2.0000 </r>
       <r>   -28.0316     0.0000     2.0000 </r>
       <r>   -28.0136     0.0000     2.0000 </r>
       <r>   -27.9955     0.0000     2.0000 </r>
       <r>   -27.9774     0.0000     2.0000 </r>
       <r>   -27.9594     0.0000     2.0000 </r>
       <r>   -27.9413     0.0000     2.0000 </r>
       <r>   -27.9233     0.0000     2.0000 </r>
       <r>   -27.9052     0.0000     2.0000 </r>
       <r>   -27.8872     0.0000     2.0000 </r>
       <r>   -27.8691     0.0000     2.0000 </r>
       <r>   -27.8510     0.0000     2.0000 </r>
       <r>   -27.8330     0.0000     2.0000 </r>
       <r>   -27.8149     0.0000     2.0000 </r>
       <r>   -27.7969     0.0000     2.0000 </r>
       <r>   -27.7788     0.0000     2.0000 </r>
       <r>   -27.7608     0.0000     2.0000 </r>
       <r>   -27.7427     0.0000     2.0000 </r>
       <r>   -27.7246     0.0000     2.0000 </r>
       <r>   -27.7066     0.0000     2.0000 </r>
       <r>   -27.6885     0.0000     2.0000 </r>
       <r>   -27.6705     0.0000     2.0000 </r>
       <r>   -27.6524     0.0000     2.0000 </r>
       <r>   -27.6343     0.0000     2.0000 </r>
       <r>   -27.6163     0.0000     2.0000 </r>
       <r>   -27.5982     0.0000     2.0000 </r>
       <r>   -27.5802     0.0000     2.0000 </r>
       <r>   -27.5621     0.0000     2.0000 </r>
       <r>   -27.5441     0.0000     2.0000 </r>
       <r>   -27.5260     0.0000     2.0000 </r>
       <r>   -27.5079     0.0000     2.0000 </r>
       <r>   -27.4899     0.0000     2.0000 </r>
       <r>   -27.4718     0.0000     2.0000 </r>
       <r>   -27.4538     0.0000     2.0000 </r>
       <r>   -27.4357     0.0000     2.0000 </r>
       <r>   -27.4177     0.0000     2.0000 </r>
       <r>   -27.3996     0.0000     2.0000 </r>
       <r>   -27.3815     0.0000     2.0000 </r>
       <r>   -27.3635     0.0000     2.0000 </r>
       <r>   -27.3454     0.0000     2.0000 </r>
       <r>   -27.3274     0.0000     2.0000 </r>
       <r>   -27.3093     0.0000     2.0000 </r>
       <r>   -27.2913     0.0000     2.0000 </r>
       <r>   -27.2732     0.0000     2.0000 </r>
       <r>   -27.2551     0.0000     2.0000 </r>
       <r>   -27.2371     0.0000     2.0000 </r>
       <r>   -27.2190     0.0000     2.0000 </r>
       <r>   -27.2010     0.0000     2.0000 </r>
       <r>   -27.1829     0.0000     2.0000 </r>
       <r>   -27.1649     0.0000     2.0000 </r>
       <r>   -27.1468     0.0000     2.0000 </r>
       <r>   -27.1287     0.0000     2.0000 </r>
       <r>   -27.1107     0.0000     2.0000 </r>
       <r>   -27.0926     0.0000     2.0000 </r>
       <r>   -27.0746     0.0000     2.0000 </r>
       <r>   -27.0565     0.0000     2.0000 </r>
       <r>   -27.0384     0.0000     2.0000 </r>
       <r>   -27.0204     0.0000     2.0000 </r>
       <r>   -27.0023     0.0000     2.0000 </r>
       <r>   -26.9843     0.0000     2.0000 </r>
       <r>   -26.9662     0.0000     2.0000 </r>
       <r>   -26.9482     0.0000     2.0000 </r>
       <r>   -26.9301     0.0000     2.0000 </r>
       <r>   -26.9120     0.0000     2.0000 </r>
       <r>   -26.8940     0.0000     2.0000 </r>
       <r>   -26.8759     0.0000     2.0000 </r>
       <r>   -26.8579     0.0000     2.0000 </r>
       <r>   -26.8398     0.0000     2.0000 </r>
       <r>   -26.8218     0.0000     2.0000 </r>
       <r>   -26.8037     0.0000     2.0000 </r>
       <r>   -26.7856     0.0000     2.0000 </r>
       <r>   -26.7676     0.0000     2.0000 </r>
       <r>   -26.7495     0.0000     2.0000 </r>
       <r>   -26.7315     0.0000     2.0000 </r>
       <r>   -26.7134     0.0000     2.0000 </r>
       <r>   -26.6954     0.0000     2.0000 </r>
       <r>   -26.6773     0.0000     2.0000 </r>
       <r>   -26.6592     0.0000     2.0000 </r>
       <r>   -26.6412     0.0000     2.0000 </r>
       <r>   -26.6231     0.0000     2.0000 </r>
       <r>   -26.6051     0.0000     2.0000 </r>
       <r>   -26.5870     0.0000     2.0000 </r>
       <r>   -26.5690     0.0000     2.0000 </r>
       <r>   -26.5509     0.0000     2.0000 </r>
       <r>   -26.5328     0.0000     2.0000 </r>
       <r>   -26.5148     0.0000     2.0000 </r>
       <r>   -26.4967     0.0000     2.0000 </r>
       <r>   -26.4787     0.0000     2.0000 </r>
       <r>   -26.4606     0.0000     2.0000 </r>
       <r>   -26.4425     0.0000     2.0000 </r>
       <r>   -26.4245     0.0000     2.0000 </r>
       <r>   -26.4064     0.0000     2.0000 </r>
       <r>   -26.3884     0.0000     2.0000 </r>
       <r>   -26.3703     0.0000     2.0000 </r>
       <r>   -26.3523     0.0000     2.0000 </r>
       <r>   -26.3342     0.0000     2.0000 </r>
       <r>   -26.3161     0.0000     2.0000 </r>
       <r>   -26.2981     0.0000     2.0000 </r>
       <r>   -26.2800     0.0000     2.0000 </r>
       <r>   -26.2620     0.0000     2.0000 </r>
       <r>   -26.2439     0.0000     2.0000 </r>
       <r>   -26.2259     0.0000     2.0000 </r>
       <r>   -26.2078     0.0000     2.0000 </r>
       <r>   -26.1897     0.0000     2.0000 </r>
       <r>   -26.1717     0.0000     2.0000 </r>
       <r>   -26.1536     0.0000     2.0000 </r>
       <r>   -26.1356     0.0000     2.0000 </r>
       <r>   -26.1175     0.0000     2.0000 </r>
       <r>   -26.0995     0.0000     2.0000 </r>
       <r>   -26.0814     0.0000     2.0000 </r>
       <r>   -26.0633     0.0000     2.0000 </r>
       <r>   -26.0453     0.0000     2.0000 </r>
       <r>   -26.0272     0.0000     2.0000 </r>
       <r>   -26.0092     0.0000     2.0000 </r>
       <r>   -25.9911     0.0000     2.0000 </r>
       <r>   -25.9731     0.0000     2.0000 </r>
       <r>   -25.9550     0.0000     2.0000 </r>
       <r>   -25.9369     0.0000     2.0000 </r>
       <r>   -25.9189     0.0000     2.0000 </r>
       <r>   -25.9008     0.0000     2.0000 </r>
       <r>   -25.8828     0.0000     2.0000 </r>
       <r>   -25.8647     0.0000     2.0000 </r>
       <r>   -25.8466     0.0000     2.0000 </r>
       <r>   -25.8286     0.0000     2.0000 </r>
       <r>   -25.8105     0.0000     2.0000 </r>
       <r>   -25.7925     0.0000     2.0000 </r>
       <r>   -25.7744     0.0000     2.0000 </r>
       <r>   -25.7564     0.0000     2.0000 </r>
       <r>   -25.7383     0.0000     2.0000 </r>
       <r>   -25.7202     0.0000     2.0000 </r>
       <r>   -25.7022     0.0000     2.0000 </r>
       <r>   -25.6841     0.0000     2.0000 </r>
       <r>   -25.6661     0.0000     2.0000 </r>
       <r>   -25.6480     0.0000     2.0000 </r>
       <r>   -25.6300     0.0000     2.0000 </r>
       <r>   -25.6119     0.0000     2.0000 </r>
       <r>   -25.5938     0.0000     2.0000 </r>
       <r>   -25.5758     0.0000     2.0000 </r>
       <r>   -25.5577     0.0000     2.0000 </r>
       <r>   -25.5397     0.0000     2.0000 </r>
       <r>   -25.5216     0.0000     2.0000 </r>
       <r>   -25.5036     0.0000     2.0000 </r>
       <r>   -25.4855     0.0000     2.0000 </r>
       <r>   -25.4674     0.0000     2.0000 </r>
       <r>   -25.4494     0.0000     2.0000 </r>
       <r>   -25.4313     0.0000     2.0000 </r>
       <r>   -25.4133     0.0000     2.0000 </r>
       <r>   -25.3952     0.0000     2.0000 </r>
       <r>   -25.3772     0.0000     2.0000 </r>
       <r>   -25.3591     0.0000     2.0000 </r>
       <r>   -25.3410     0.0000     2.0000 </r>
       <r>   -25.3230     0.0000     2.0000 </r>
       <r>   -25.3049     0.0000     2.0000 </r>
       <r>   -25.2869     0.0000     2.0000 </r>
       <r>   -25.2688     0.0000     2.0000 </r>
       <r>   -25.2507     0.0000     2.0000 </r>
       <r>   -25.2327     0.0000     2.0000 </r>
       <r>   -25.2146     0.0000     2.0000 </r>
       <r>   -25.1966     0.0000     2.0000 </r>
       <r>   -25.1785     0.0000     2.0000 </r>
       <r>   -25.1605     0.0000     2.0000 </r>
       <r>   -25.1424     0.0000     2.0000 </r>
       <r>   -25.1243     0.0000     2.0000 </r>
       <r>   -25.1063     0.0000     2.0000 </r>
       <r>   -25.0882     0.0000     2.0000 </r>
       <r>   -25.0702     0.0000     2.0000 </r>
       <r>   -25.0521     0.0000     2.0000 </r>
       <r>   -25.0341     0.0000     2.0000 </r>
       <r>   -25.0160     0.0000     2.0000 </r>
       <r>   -24.9979     0.0000     2.0000 </r>
       <r>   -24.9799     0.0000     2.0000 </r>
       <r>   -24.9618     0.0000     2.0000 </r>
       <r>   -24.9438     0.0000     2.0000 </r>
       <r>   -24.9257     0.0000     2.0000 </r>
       <r>   -24.9077     0.0000     2.0000 </r>
       <r>   -24.8896     0.0000     2.0000 </r>
       <r>   -24.8715     0.0000     2.0000 </r>
       <r>   -24.8535     0.0000     2.0000 </r>
       <r>   -24.8354     0.0000     2.0000 </r>
       <r>   -24.8174     0.0000     2.0000 </r>
       <r>   -24.7993     0.0000     2.0000 </r>
       <r>   -24.7813     0.0000     2.0000 </r>
       <r>   -24.7632     0.0000     2.0000 </r>
       <r>   -24.7451     0.0000     2.0000 </r>
       <r>   -24.7271     0.0000     2.0000 </r>
       <r>   -24.7090     0.0000     2.0000 </r>
       <r>   -24.6910     0.0000     2.0000 </r>
       <r>   -24.6729     0.0000     2.0000 </r>
       <r>   -24.6548     0.0000     2.0000 </r>
       <r>   -24.6368     0.0000     2.0000 </r>
       <r>   -24.6187     0.0000     2.0000 </r>
       <r>   -24.6007     0.0000     2.0000 </r>
       <r>   -24.5826     0.0000     2.0000 </r>
       <r>   -24.5646     0.0000     2.0000 </r>
       <r>   -24.5465     0.0000     2.0000 </r>
       <r>   -24.5284     0.0000     2.0000 </r>
       <r>   -24.5104     0.0000     2.0000 </r>
       <r>   -24.4923     0.0000     2.0000 </r>
       <r>   -24.4743     0.0000     2.0000 </r>
       <r>   -24.4562     0.0000     2.0000 </r>
       <r>   -24.4382     0.0000     2.0000 </r>
       <r>   -24.4201     0.0000     2.0000 </r>
       <r>   -24.4020     0.0000     2.0000 </r>
       <r>   -24.3840     0.0000     2.0000 </r>
       <r>   -24.3659     0.0000     2.0000 </r>
       <r>   -24.3479     0.0000     2.0000 </r>
       <r>   -24.3298     0.0000     2.0000 </r>
       <r>   -24.3118     0.0000     2.0000 </r>
       <r>   -24.2937     0.0000     2.0000 </r>
       <r>   -24.2756     0.0000     2.0000 </r>
       <r>   -24.2576     0.0000     2.0000 </r>
       <r>   -24.2395     0.0000     2.0000 </r>
       <r>   -24.2215     0.0000     2.0000 </r>
       <r>   -24.2034     0.0000     2.0000 </r>
       <r>   -24.1853     0.0000     2.0000 </r>
       <r>   -24.1673     0.0000     2.0000 </r>
       <r>   -24.1492     0.0000     2.0000 </r>
       <r>   -24.1312     0.0000     2.0000 </r>
       <r>   -24.1131     0.0000     2.0000 </r>
       <r>   -24.0951     0.0000     2.0000 </r>
       <r>   -24.0770     0.0000     2.0000 </r>
       <r>   -24.0589     0.0000     2.0000 </r>
       <r>   -24.0409     0.0000     2.0000 </r>
       <r>   -24.0228     0.0000     2.0000 </r>
       <r>   -24.0048     0.0000     2.0000 </r>
       <r>   -23.9867     0.0000     2.0000 </r>
       <r>   -23.9687     0.0000     2.0000 </r>
       <r>   -23.9506     0.0000     2.0000 </r>
       <r>   -23.9325     0.0000     2.0000 </r>
       <r>   -23.9145     0.0000     2.0000 </r>
       <r>   -23.8964     0.0000     2.0000 </r>
       <r>   -23.8784     0.0000     2.0000 </r>
       <r>   -23.8603     0.0000     2.0000 </r>
       <r>   -23.8423     0.0000     2.0000 </r>
       <r>   -23.8242     0.0000     2.0000 </r>
       <r>   -23.8061     0.0000     2.0000 </r>
       <r>   -23.7881     0.0000     2.0000 </r>
       <r>   -23.7700     0.0000     2.0000 </r>
       <r>   -23.7520     0.0000     2.0000 </r>
       <r>   -23.7339     0.0000     2.0000 </r>
       <r>   -23.7159     0.0000     2.0000 </r>
       <r>   -23.6978     0.0000     2.0000 </r>
       <r>   -23.6797     0.0000     2.0000 </r>
       <r>   -23.6617     0.0000     2.0000 </r>
       <r>   -23.6436     0.0000     2.0000 </r>
       <r>   -23.6256     0.0000     2.0000 </r>
       <r>   -23.6075     0.0000     2.0000 </r>
       <r>   -23.5894     0.0000     2.0000 </r>
       <r>   -23.5714     0.0000     2.0000 </r>
       <r>   -23.5533     0.0000     2.0000 </r>
       <r>   -23.5353     0.0000     2.0000 </r>
       <r>   -23.5172     0.0000     2.0000 </r>
       <r>   -23.4992     0.0000     2.0000 </r>
       <r>   -23.4811     0.0000     2.0000 </r>
       <r>   -23.4630     0.0000     2.0000 </r>
       <r>   -23.4450     0.0000     2.0000 </r>
       <r>   -23.4269     0.0000     2.0000 </r>
       <r>   -23.4089     0.0000     2.0000 </r>
       <r>   -23.3908     0.0000     2.0000 </r>
       <r>   -23.3728     0.0000     2.0000 </r>
       <r>   -23.3547     0.0000     2.0000 </r>
       <r>   -23.3366     0.0000     2.0000 </r>
       <r>   -23.3186     0.0000     2.0000 </r>
       <r>   -23.3005     0.0000     2.0000 </r>
       <r>   -23.2825     0.0000     2.0000 </r>
       <r>   -23.2644     0.0000     2.0000 </r>
       <r>   -23.2464     0.0000     2.0000 </r>
       <r>   -23.2283     0.0000     2.0000 </r>
       <r>   -23.2102     0.0000     2.0000 </r>
       <r>   -23.1922     0.0000     2.0000 </r>
       <r>   -23.1741     0.0000     2.0000 </r>
       <r>   -23.1561     0.0000     2.0000 </r>
       <r>   -23.1380     0.0000     2.0000 </r>
       <r>   -23.1200     0.0000     2.0000 </r>
       <r>   -23.1019     0.0000     2.0000 </r>
       <r>   -23.0838     0.0000     2.0000 </r>
       <r>   -23.0658     0.0000     2.0000 </r>
       <r>   -23.0477     0.0000     2.0000 </r>
       <r>   -23.0297     0.0000     2.0000 </r>
       <r>   -23.0116     0.0000     2.0000 </r>
       <r>   -22.9935     0.0000     2.0000 </r>
       <r>   -22.9755     0.0000     2.0000 </r>
       <r>   -22.9574     0.0000     2.0000 </r>
       <r>   -22.9394     0.0000     2.0000 </r>
       <r>   -22.9213     0.0000     2.0000 </r>
       <r>   -22.9033     0.0000     2.0000 </r>
       <r>   -22.8852     0.0000     2.0000 </r>
       <r>   -22.8671     0.0000     2.0000 </r>
       <r>   -22.8491     0.0000     2.0000 </r>
       <r>   -22.8310     0.0000     2.0000 </r>
       <r>   -22.8130     0.0000     2.0000 </r>
       <r>   -22.7949     0.0000     2.0000 </r>
       <r>   -22.7769     0.0000     2.0000 </r>
       <r>   -22.7588     0.0000     2.0000 </r>
       <r>   -22.7407     0.0000     2.0000 </r>
       <r>   -22.7227     0.0000     2.0000 </r>
       <r>   -22.7046     0.0000     2.0000 </r>
       <r>   -22.6866     0.0000     2.0000 </r>
       <r>   -22.6685     0.0000     2.0000 </r>
       <r>   -22.6505     0.0000     2.0000 </r>
       <r>   -22.6324     0.0000     2.0000 </r>
       <r>   -22.6143     0.0000     2.0000 </r>
       <r>   -22.5963     0.0000     2.0000 </r>
       <r>   -22.5782     0.0000     2.0000 </r>
       <r>   -22.5602     0.0000     2.0000 </r>
       <r>   -22.5421     0.0000     2.0000 </r>
       <r>   -22.5241     0.0000     2.0000 </r>
       <r>   -22.5060     0.0000     2.0000 </r>
       <r>   -22.4879     0.0000     2.0000 </r>
       <r>   -22.4699     0.0000     2.0000 </r>
       <r>   -22.4518     0.0000     2.0000 </r>
       <r>   -22.4338     0.0000     2.0000 </r>
       <r>   -22.4157     0.0000     2.0000 </r>
       <r>   -22.3976     0.0000     2.0000 </r>
       <r>   -22.3796     0.0000     2.0000 </r>
       <r>   -22.3615     0.0000     2.0000 </r>
       <r>   -22.3435     0.0000     2.0000 </r>
       <r>   -22.3254     0.0000     2.0000 </r>
       <r>   -22.3074     0.0000     2.0000 </r>
       <r>   -22.2893     0.0000     2.0000 </r>
       <r>   -22.2712     0.0000     2.0000 </r>
       <r>   -22.2532     0.0000     2.0000 </r>
       <r>   -22.2351     0.0000     2.0000 </r>
       <r>   -22.2171     0.0000     2.0000 </r>
       <r>   -22.1990     0.0000     2.0000 </r>
       <r>   -22.1810     0.0000     2.0000 </r>
       <r>   -22.1629     0.0000     2.0000 </r>
       <r>   -22.1448     0.0000     2.0000 </r>
       <r>   -22.1268     0.0000     2.0000 </r>
       <r>   -22.1087     0.0000     2.0000 </r>
       <r>   -22.0907     0.0000     2.0000 </r>
       <r>   -22.0726     0.0000     2.0000 </r>
       <r>   -22.0546     0.0000     2.0000 </r>
       <r>   -22.0365     0.0000     2.0000 </r>
       <r>   -22.0184     0.0000     2.0000 </r>
       <r>   -22.0004     0.0000     2.0000 </r>
       <r>   -21.9823     0.0000     2.0000 </r>
       <r>   -21.9643     0.0000     2.0000 </r>
       <r>   -21.9462     0.0000     2.0000 </r>
       <r>   -21.9282     0.0000     2.0000 </r>
       <r>   -21.9101     0.0000     2.0000 </r>
       <r>   -21.8920     0.0000     2.0000 </r>
       <r>   -21.8740     0.0000     2.0000 </r>
       <r>   -21.8559     0.0000     2.0000 </r>
       <r>   -21.8379     0.0000     2.0000 </r>
       <r>   -21.8198     0.0000     2.0000 </r>
       <r>   -21.8017     0.0000     2.0000 </r>
       <r>   -21.7837     0.0000     2.0000 </r>
       <r>   -21.7656     0.0000     2.0000 </r>
       <r>   -21.7476     0.0000     2.0000 </r>
       <r>   -21.7295     0.0000     2.0000 </r>
       <r>   -21.7115     0.0000     2.0000 </r>
       <r>   -21.6934     0.0000     2.0000 </r>
       <r>   -21.6753     0.0000     2.0000 </r>
       <r>   -21.6573     0.0000     2.0000 </r>
       <r>   -21.6392     0.0000     2.0000 </r>
       <r>   -21.6212     0.0000     2.0000 </r>
       <r>   -21.6031     0.0000     2.0000 </r>
       <r>   -21.5851     0.0000     2.0000 </r>
       <r>   -21.5670     0.0000     2.0000 </r>
       <r>   -21.5489     0.0000     2.0000 </r>
       <r>   -21.5309     0.0000     2.0000 </r>
       <r>   -21.5128     0.0000     2.0000 </r>
       <r>   -21.4948     0.0000     2.0000 </r>
       <r>   -21.4767     0.0000     2.0000 </r>
       <r>   -21.4587     0.0000     2.0000 </r>
       <r>   -21.4406     0.0000     2.0000 </r>
       <r>   -21.4225     0.0000     2.0000 </r>
       <r>   -21.4045     0.0000     2.0000 </r>
       <r>   -21.3864     0.0000     2.0000 </r>
       <r>   -21.3684     0.0000     2.0000 </r>
       <r>   -21.3503     0.0000     2.0000 </r>
       <r>   -21.3323     0.0000     2.0000 </r>
       <r>   -21.3142     0.0000     2.0000 </r>
       <r>   -21.2961     0.0000     2.0000 </r>
       <r>   -21.2781     0.0000     2.0000 </r>
       <r>   -21.2600     0.0000     2.0000 </r>
       <r>   -21.2420     0.0000     2.0000 </r>
       <r>   -21.2239     0.0000     2.0000 </r>
       <r>   -21.2058     0.0000     2.0000 </r>
       <r>   -21.1878     0.0000     2.0000 </r>
       <r>   -21.1697     0.0000     2.0000 </r>
       <r>   -21.1517     0.0000     2.0000 </r>
       <r>   -21.1336     0.0000     2.0000 </r>
       <r>   -21.1156     0.0000     2.0000 </r>
       <r>   -21.0975     0.0000     2.0000 </r>
       <r>   -21.0794     0.0000     2.0000 </r>
       <r>   -21.0614     0.0000     2.0000 </r>
       <r>   -21.0433     0.0000     2.0000 </r>
       <r>   -21.0253     0.0000     2.0000 </r>
       <r>   -21.0072     0.0000     2.0000 </r>
       <r>   -20.9892     0.0000     2.0000 </r>
       <r>   -20.9711     0.0000     2.0000 </r>
       <r>   -20.9530     0.0000     2.0000 </r>
       <r>   -20.9350     0.0000     2.0000 </r>
       <r>   -20.9169     0.0000     2.0000 </r>
       <r>   -20.8989     0.0000     2.0000 </r>
       <r>   -20.8808     0.0000     2.0000 </r>
       <r>   -20.8628     0.0000     2.0000 </r>
       <r>   -20.8447     0.0000     2.0000 </r>
       <r>   -20.8266     0.0000     2.0000 </r>
       <r>   -20.8086     0.0000     2.0000 </r>
       <r>   -20.7905     0.0000     2.0000 </r>
       <r>   -20.7725     0.0000     2.0000 </r>
       <r>   -20.7544     0.0000     2.0000 </r>
       <r>   -20.7363     0.0000     2.0000 </r>
       <r>   -20.7183     0.0000     2.0000 </r>
       <r>   -20.7002     0.0000     2.0000 </r>
       <r>   -20.6822     0.0003     2.0000 </r>
       <r>   -20.6641     0.0031     2.0001 </r>
       <r>   -20.6461     0.0232     2.0005 </r>
       <r>   -20.6280     0.1331     2.0029 </r>
       <r>   -20.6099     0.5906     2.0135 </r>
       <r>   -20.5919     2.0297     2.0502 </r>
       <r>   -20.5738     5.4024     2.1478 </r>
       <r>   -20.5558    11.1380     2.3489 </r>
       <r>   -20.5377    17.7883     2.6701 </r>
       <r>   -20.5197    22.0089     3.0675 </r>
       <r>   -20.5016    21.0965     3.4485 </r>
       <r>   -20.4835    15.6663     3.7314 </r>
       <r>   -20.4655     9.0126     3.8941 </r>
       <r>   -20.4474     4.0163     3.9666 </r>
       <r>   -20.4294     1.3863     3.9917 </r>
       <r>   -20.4113     0.3706     3.9984 </r>
       <r>   -20.3933     0.0767     3.9997 </r>
       <r>   -20.3752     0.0123     4.0000 </r>
       <r>   -20.3571     0.0015     4.0000 </r>
       <r>   -20.3391     0.0001     4.0000 </r>
       <r>   -20.3210     0.0000     4.0000 </r>
       <r>   -20.3030     0.0000     4.0000 </r>
       <r>   -20.2849     0.0000     4.0000 </r>
       <r>   -20.2669     0.0000     4.0000 </r>
       <r>   -20.2488     0.0000     4.0000 </r>
       <r>   -20.2307     0.0000     4.0000 </r>
       <r>   -20.2127     0.0000     4.0000 </r>
       <r>   -20.1946     0.0000     4.0000 </r>
       <r>   -20.1766     0.0000     4.0000 </r>
       <r>   -20.1585     0.0000     4.0000 </r>
       <r>   -20.1404     0.0000     4.0000 </r>
       <r>   -20.1224     0.0000     4.0000 </r>
       <r>   -20.1043     0.0000     4.0000 </r>
       <r>   -20.0863     0.0000     4.0000 </r>
       <r>   -20.0682     0.0000     4.0000 </r>
       <r>   -20.0502     0.0000     4.0000 </r>
       <r>   -20.0321     0.0000     4.0000 </r>
       <r>   -20.0140     0.0000     4.0000 </r>
       <r>   -19.9960     0.0000     4.0000 </r>
       <r>   -19.9779     0.0000     4.0000 </r>
       <r>   -19.9599     0.0000     4.0000 </r>
       <r>   -19.9418     0.0000     4.0000 </r>
       <r>   -19.9238     0.0000     4.0000 </r>
       <r>   -19.9057     0.0000     4.0000 </r>
       <r>   -19.8876     0.0000     4.0000 </r>
       <r>   -19.8696     0.0000     4.0000 </r>
       <r>   -19.8515     0.0000     4.0000 </r>
       <r>   -19.8335     0.0000     4.0000 </r>
       <r>   -19.8154     0.0000     4.0000 </r>
       <r>   -19.7974     0.0000     4.0000 </r>
       <r>   -19.7793     0.0000     4.0000 </r>
       <r>   -19.7612     0.0000     4.0000 </r>
       <r>   -19.7432     0.0000     4.0000 </r>
       <r>   -19.7251     0.0000     4.0000 </r>
       <r>   -19.7071     0.0000     4.0000 </r>
       <r>   -19.6890     0.0000     4.0000 </r>
       <r>   -19.6710     0.0000     4.0000 </r>
       <r>   -19.6529     0.0000     4.0000 </r>
       <r>   -19.6348     0.0000     4.0000 </r>
       <r>   -19.6168     0.0000     4.0000 </r>
       <r>   -19.5987     0.0000     4.0000 </r>
       <r>   -19.5807     0.0000     4.0000 </r>
       <r>   -19.5626     0.0000     4.0000 </r>
       <r>   -19.5445     0.0000     4.0000 </r>
       <r>   -19.5265     0.0000     4.0000 </r>
       <r>   -19.5084     0.0000     4.0000 </r>
       <r>   -19.4904     0.0000     4.0000 </r>
       <r>   -19.4723     0.0000     4.0000 </r>
       <r>   -19.4543     0.0000     4.0000 </r>
       <r>   -19.4362     0.0000     4.0000 </r>
       <r>   -19.4181     0.0000     4.0000 </r>
       <r>   -19.4001     0.0000     4.0000 </r>
       <r>   -19.3820     0.0000     4.0000 </r>
       <r>   -19.3640     0.0000     4.0000 </r>
       <r>   -19.3459     0.0000     4.0000 </r>
       <r>   -19.3279     0.0000     4.0000 </r>
       <r>   -19.3098     0.0000     4.0000 </r>
       <r>   -19.2917     0.0000     4.0000 </r>
       <r>   -19.2737     0.0000     4.0000 </r>
       <r>   -19.2556     0.0000     4.0000 </r>
[...]
        <r>     0.1382     0.0053     0.0012     0.0025     0.0012     0.0000     0.0000     0.0000     0.0000     0.0000 </r>
        <r>     0.1563     0.0042     0.0016     0.0017     0.0016     0.0000     0.0000     0.0000     0.0000     0.0000 </r>
        <r>     0.1743     0.0036     0.0017     0.0013     0.0017     0.0000     0.0000     0.0000     0.0000     0.0000 </r>
        <r>     0.1924     0.0027     0.0013     0.0010     0.0013     0.0000     0.0000     0.0000     0.0000     0.0000 </r>
        <r>     0.2105     0.0017     0.0008     0.0006     0.0008     0.0000     0.0000     0.0000     0.0000     0.0000 </r>
        <r>     0.2285     0.0008     0.0004     0.0003     0.0004     0.0000     0.0000     0.0000     0.0000     0.0000 </r>
        <r>     0.2466     0.0003     0.0001     0.0001     0.0001     0.0000     0.0000     0.0000     0.0000     0.0000 </r>
        <r>     0.2646     0.0001     0.0000     0.0000     0.0000     0.0000     0.0000     0.0000     0.0000     0.0000 </r>
        <r>     0.2827     0.0000     0.0000     0.0000     0.0000     0.0000     0.0000     0.0000     0.0000     0.0000 </r>
        <r>     0.3007     0.0000     0.0000     0.0000     0.0000     0.0000     0.0000     0.0000     0.0000     0.0000 </r>
        <r>     0.3188     0.0000     0.0000     0.0000     0.0000     0.0000     0.0000     0.0000     0.0000     0.0000 </r>
        <r>     0.3369     0.0000     0.0000     0.0000     0.0000     0.0000     0.0000     0.0000     0.0000     0.0000 </r>
        <r>     0.3549     0.0000     0.0000     0.0000     0.0000     0.0000     0.0000     0.0000     0.0000     0.0000 </r>
        <r>     0.3730     0.0000     0.0000     0.0000     0.0000     0.0000     0.0000     0.0000     0.0000     0.0000 </r>
        <r>     0.3910     0.0000     0.0000     0.0000     0.0000     0.0000     0.0000     0.0000     0.0000     0.0000 </r>
        <r>     0.4091     0.0000     0.0000     0.0000     0.0000     0.0000     0.0000     0.0000     0.0000     0.0000 </r>
        <r>     0.4271     0.0000     0.0000     0.0000     0.0000     0.0000     0.0000     0.0000     0.0000     0.0000 </r>
        <r>     0.4452     0.0000     0.0000     0.0000     0.0000     0.0000     0.0000     0.0000     0.0000     0.0000 </r>
        <r>     0.4633     0.0000     0.0000     0.0000     0.0000     0.0000     0.0000     0.0000     0.0000     0.0000 </r>
        <r>     0.4813     0.0000     0.0000     0.0000     0.0000     0.0000     0.0000     0.0000     0.0000     0.0000 </r>
        <r>     0.4994     0.0000     0.0000     0.0000     0.0000     0.0000     0.0000     0.0000     0.0000     0.0000 </r>
        <r>     0.5174     0.0000     0.0000     0.0000     0.0000     0.0000     0.0000     0.0000     0.0000     0.0000 </r>
        <r>     0.5355     0.0000     0.0000     0.0000     0.0000     0.0000     0.0000     0.0000     0.0000     0.0000 </r>
        <r>     0.5535     0.0000     0.0000     0.0000     0.0000     0.0000     0.0000     0.0000     0.0000     0.0000 </r>
        <r>     0.5716     0.0000     0.0000     0.0000     0.0000     0.0000     0.0000     0.0000     0.0000     0.0000 </r>
        <r>     0.5897     0.0000     0.0000     0.0000     0.0000     0.0000     0.0000     0.0000     0.0000     0.0000 </r>
        <r>     0.6077     0.0000     0.0000     0.0000     0.0000     0.0000     0.0000     0.0000     0.0000     0.0000 </r>
        <r>     0.6258     0.0000     0.0000     0.0000     0.0000     0.0000     0.0000     0.0000     0.0000     0.0000 </r>
        <r>     0.6438     0.0000     0.0000     0.0000     0.0000     0.0000     0.0000     0.0000     0.0000     0.0000 </r>
        <r>     0.6619     0.0000     0.0000     0.0000     0.0000     0.0000     0.0000     0.0000     0.0000     0.0000 </r>
        <r>     0.6800     0.0000     0.0000     0.0000     0.0000     0.0000     0.0000     0.0000     0.0000     0.0000 </r>
        <r>     0.6980     0.0000     0.0000     0.0000     0.0000     0.0000     0.0000     0.0000     0.0000     0.0000 </r>
        <r>     0.7161     0.0000     0.0000     0.0000     0.0000     0.0000     0.0000     0.0000     0.0000     0.0000 </r>
        <r>     0.7341     0.0000     0.0000     0.0000     0.0000     0.0000     0.0000     0.0000     0.0000     0.0000 </r>
        <r>     0.7522     0.0000     0.0000     0.0000     0.0000     0.0000     0.0000     0.0000     0.0000     0.0000 </r>
        <r>     0.7702     0.0000     0.0000     0.0000     0.0000     0.0000     0.0000     0.0000     0.0000     0.0000 </r>
        <r>     0.7883     0.0000     0.0000     0.0000     0.0000     0.0000     0.0000     0.0000     0.0000     0.0000 </r>
        <r>     0.8064     0.0000     0.0000     0.0000     0.0000     0.0000     0.0000     0.0000     0.0000     0.0000 </r>
        <r>     0.8244     0.0000     0.0000     0.0000     0.0000     0.0000     0.0000     0.0000     0.0000     0.0000 </r>
        <r>     0.8425     0.0000     0.0000     0.0000     0.0000     0.0000     0.0000     0.0000     0.0000     0.0000 </r>
        <r>     0.8605     0.0000     0.0000     0.0000     0.0000     0.0000     0.0000     0.0000     0.0000     0.0000 </r>
        <r>     0.8786     0.0000     0.0000     0.0000     0.0000     0.0000     0.0000     0.0000     0.0000     0.0000 </r>
        <r>     0.8966     0.0000     0.0000     0.0000     0.0000     0.0000     0.0000     0.0000     0.0000     0.0000 </r>
        <r>     0.9147     0.0000     0.0000     0.0000     0.0000     0.0000     0.0000     0.0000     0.0000     0.0000 </r>
        <r>     0.9328     0.0000     0.0000     0.0000     0.0000     0.0000     0.0000     0.0000     0.0000     0.0000 </r>
        <r>     0.9508     0.0000     0.0000     0.0000     0.0000     0.0000     0.0000     0.0000     0.0000     0.0000 </r>
        <r>     0.9689     0.0000     0.0000     0.0000     0.0000     0.0000     0.0000     0.0000     0.0000     0.0000 </r>
        <r>     0.9869     0.0000     0.0000     0.0000     0.0000     0.0000     0.0000     0.0000     0.0000     0.0000 </r>
        <r>     1.0050     0.0000     0.0000     0.0000     0.0000     0.0000     0.0000     0.0000     0.0000     0.0000 </r>
        <r>     1.0230     0.0000     0.0000     0.0000     0.0000     0.0000     0.0000     0.0000     0.0000     0.0000 </r>
        <r>     1.0411     0.0000     0.0000     0.0000     0.0000     0.0000     0.0000     0.0000     0.0000     0.0000 </r>
        <r>     1.0592     0.0000     0.0000     0.0000     0.0000     0.0000     0.0000     0.0000     0.0000     0.0000 </r>
        <r>     1.0772     0.0000     0.0000     0.0000     0.0000     0.0000     0.0000     0.0000     0.0000     0.0000 </r>
        <r>     1.0953     0.0000     0.0000     0.0000     0.0000     0.0000     0.0000     0.0000     0.0000     0.0000 </r>
        <r>     1.1133     0.0000     0.0000     0.0000     0.0000     0.0000     0.0000     0.0000     0.0000     0.0000 </r>
        <r>     1.1314     0.0000     0.0000     0.0000     0.0000     0.0000     0.0000     0.0000     0.0000     0.0000 </r>
        <r>     1.1494     0.0000     0.0000     0.0000     0.0000     0.0000     0.0000     0.0000     0.0000     0.0000 </r>
        <r>     1.1675     0.0000     0.0000     0.0000     0.0000     0.0000     0.0000     0.0000     0.0000     0.0000 </r>
        <r>     1.1856     0.0000     0.0000     0.0000     0.0000     0.0000     0.0000     0.0000     0.0000     0.0000 </r>
        <r>     1.2036     0.0000     0.0000     0.0000     0.0000     0.0000     0.0000     0.0000     0.0000     0.0000 </r>
        <r>     1.2217     0.0000     0.0000     0.0000     0.0000     0.0000     0.0000     0.0000     0.0000     0.0000 </r>
        <r>     1.2397     0.0000     0.0000     0.0000     0.0000     0.0000     0.0000     0.0000     0.0000     0.0000 </r>
        <r>     1.2578     0.0000     0.0000     0.0000     0.0000     0.0000     0.0000     0.0000     0.0000     0.0000 </r>
        <r>     1.2759     0.0000     0.0000     0.0000     0.0000     0.0000     0.0000     0.0000     0.0000     0.0000 </r>
        <r>     1.2939     0.0000     0.0000     0.0000     0.0000     0.0000     0.0000     0.0000     0.0000     0.0000 </r>
        <r>     1.3120     0.0000     0.0000     0.0000     0.0000     0.0000     0.0000     0.0000     0.0000     0.0000 </r>
        <r>     1.3300     0.0000     0.0000     0.0000     0.0000     0.0000     0.0000     0.0000     0.0000     0.0000 </r>
        <r>     1.3481     0.0000     0.0000     0.0000     0.0000     0.0000     0.0000     0.0000     0.0000     0.0000 </r>
        <r>     1.3661     0.0000     0.0000     0.0000     0.0000     0.0000     0.0000     0.0000     0.0000     0.0000 </r>
        <r>     1.3842     0.0000     0.0000     0.0000     0.0000     0.0000     0.0000     0.0000     0.0000     0.0000 </r>
        <r>     1.4023     0.0000     0.0000     0.0000     0.0000     0.0000     0.0000     0.0000     0.0000     0.0000 </r>
        <r>     1.4203     0.0000     0.0000     0.0000     0.0000     0.0000     0.0000     0.0000     0.0000     0.0000 </r>
        <r>     1.4384     0.0000     0.0000     0.0000     0.0000     0.0000     0.0000     0.0000     0.0000     0.0000 </r>
        <r>     1.4564     0.0000     0.0000     0.0000     0.0000     0.0000     0.0000     0.0000     0.0000     0.0000 </r>
        <r>     1.4745     0.0000     0.0000     0.0000     0.0000     0.0000     0.0000     0.0000     0.0000     0.0000 </r>
        <r>     1.4925     0.0000     0.0000     0.0000     0.0000     0.0000     0.0000     0.0000     0.0000     0.0000 </r>
        <r>     1.5106     0.0000     0.0000     0.0000     0.0000     0.0000     0.0000     0.0000     0.0000     0.0000 </r>
        <r>     1.5287     0.0000     0.0000     0.0000     0.0000     0.0000     0.0000     0.0000     0.0000     0.0000 </r>
        <r>     1.5467     0.0000     0.0000     0.0000     0.0000     0.0000     0.0000     0.0000     0.0000     0.0000 </r>
        <r>     1.5648     0.0000     0.0000     0.0000     0.0000     0.0000     0.0000     0.0000     0.0000     0.0000 </r>
        <r>     1.5828     0.0000     0.0000     0.0000     0.0000     0.0000     0.0000     0.0000     0.0000     0.0000 </r>
        <r>     1.6009     0.0000     0.0000     0.0000     0.0000     0.0000     0.0000     0.0000     0.0000     0.0000 </r>
        <r>     1.6189     0.0000     0.0000     0.0000     0.0000     0.0000     0.0000     0.0000     0.0000     0.0000 </r>
        <r>     1.6370     0.0000     0.0000     0.0000     0.0000     0.0000     0.0000     0.0000     0.0000     0.0000 </r>
        <r>     1.6551     0.0000     0.0000     0.0000     0.0000     0.0000     0.0000     0.0000     0.0000     0.0000 </r>
        <r>     1.6731     0.0000     0.0000     0.0000     0.0000     0.0000     0.0000     0.0000     0.0000     0.0000 </r>
        <r>     1.6912     0.0000     0.0000     0.0000     0.0000     0.0000     0.0000     0.0000     0.0000     0.0000 </r>
        <r>     1.7092     0.0000     0.0000     0.0000     0.0000     0.0000     0.0000     0.0000     0.0000     0.0000 </r>
        <r>     1.7273     0.0000     0.0000     0.0000     0.0000     0.0000     0.0000     0.0000     0.0000     0.0000 </r>
        <r>     1.7454     0.0000     0.0000     0.0000     0.0000     0.0000     0.0000     0.0000     0.0000     0.0000 </r>
        <r>     1.7634     0.0000     0.0000     0.0000     0.0000     0.0000     0.0000     0.0000     0.0000     0.0000 </r>
        <r>     1.7815     0.0000     0.0000     0.0000     0.0000     0.0000     0.0000     0.0000     0.0000     0.0000 </r>
        <r>     1.7995     0.0000     0.0000     0.0000     0.0000     0.0000     0.0000     0.0000     0.0000     0.0000 </r>
       </set>
      </set>
     </set>
    </array>
   </partial>
  </dos>
  <projected>
   <eigenvalues>
    <array>
     <dimension dim="1">band</dimension>
     <dimension dim="2">kpoint</dimension>
     <dimension dim="3">spin</dimension>
     <field>eigene</field>
     <field>occ</field>
     <set>
      <set comment="spin 1">
       <set comment="kpoint 1">
        <r>  -32.6568    1.0000 </r>
        <r>  -20.5227    1.0000 </r>
        <r>  -13.4926    1.0000 </r>
        <r>  -13.3886    1.0000 </r>
        <r>  -13.3886    1.0000 </r>
        <r>   -6.9301    1.0000 </r>
        <r>   -6.9301    1.0000 </r>
        <r>   -0.1403    0.0000 </r>
        <r>    0.0274    0.0000 </r>
        <r>    0.1476    0.0000 </r>
        <r>    0.1532    0.0000 </r>
        <r>    0.1533    0.0000 </r>
       </set>
      </set>
      <set comment="spin 2">
       <set comment="kpoint 1">
        <r>  -31.3973    1.0000 </r>
        <r>  -18.7398    1.0000 </r>
        <r>  -12.4719    1.0000 </r>
        <r>  -11.5519    1.0000 </r>
        <r>  -11.5519    1.0000 </r>
        <r>   -4.6724    0.0000 </r>
        <r>   -4.6723    0.0000 </r>
        <r>   -0.0625    0.0000 </r>
        <r>    0.0516    0.0000 </r>
        <r>    0.1577    0.0000 </r>
        <r>    0.1586    0.0000 </r>
        <r>    0.1587    0.0000 </r>
       </set>
      </set>
     </set>
    </array>
   </eigenvalues>
   <array>
    <dimension dim="1">ion</dimension>
    <dimension dim="2">band</dimension>
    <dimension dim="3">kpoint</dimension>
    <dimension dim="4">spin</dimension>
    <field>    s</field>
    <field>   py</field>
    <field>   pz</field>
    <field>   px</field>
    <field>  dxy</field>
    <field>  dyz</field>
    <field>  dz2</field>
    <field>  dxz</field>
    <field>x2-y2</field>
    <set>
     <set comment="spin1">
      <set comment="kpoint 1">
       <set comment="band 1">
        <r>  0.4009  0.0000  0.0990  0.0000  0.0000  0.0000  0.0000  0.0000  0.0000 </r>
        <r>  0.4009  0.0000  0.0990  0.0000  0.0000  0.0000  0.0000  0.0000  0.0000 </r>
       </set>
       <set comment="band 2">
        <r>  0.3706  0.0000  0.0421  0.0000  0.0000  0.0000  0.0000  0.0000  0.0000 </r>
        <r>  0.3706  0.0000  0.0421  0.0000  0.0000  0.0000  0.0000  0.0000  0.0000 </r>
       </set>
       <set comment="band 3">
        <r>  0.0425  0.0000  0.3799  0.0000  0.0000  0.0000  0.0000  0.0000  0.0000 </r>
        <r>  0.0425  0.0000  0.3799  0.0000  0.0000  0.0000  0.0000  0.0000  0.0000 </r>
       </set>
       <set comment="band 4">
        <r>  0.0000  0.0000  0.0000  0.3728  0.0000  0.0000  0.0000  0.0000  0.0000 </r>
        <r>  0.0000  0.0000  0.0000  0.3728  0.0000  0.0000  0.0000  0.0000  0.0000 </r>
       </set>
       <set comment="band 5">
        <r>  0.0000  0.3728  0.0000  0.0000  0.0000  0.0000  0.0000  0.0000  0.0000 </r>
        <r>  0.0000  0.3728  0.0000  0.0000  0.0000  0.0000  0.0000  0.0000  0.0000 </r>
       </set>
       <set comment="band 6">
        <r>  0.0000  0.0000  0.0000  0.3879  0.0000  0.0000  0.0000  0.0000  0.0000 </r>
        <r>  0.0000  0.0000  0.0000  0.3879  0.0000  0.0000  0.0000  0.0000  0.0000 </r>
       </set>
       <set comment="band 7">
        <r>  0.0000  0.3879  0.0000  0.0000  0.0000  0.0000  0.0000  0.0000  0.0000 </r>
        <r>  0.0000  0.3879  0.0000  0.0000  0.0000  0.0000  0.0000  0.0000  0.0000 </r>
       </set>
       <set comment="band 8">
        <r>  0.0040  0.0000  0.0022  0.0000  0.0000  0.0000  0.0000  0.0000  0.0000 </r>
        <r>  0.0040  0.0000  0.0022  0.0000  0.0000  0.0000  0.0000  0.0000  0.0000 </r>
       </set>
       <set comment="band 9">
        <r>  0.0006  0.0000  0.0003  0.0000  0.0000  0.0000  0.0000  0.0000  0.0000 </r>
        <r>  0.0006  0.0000  0.0003  0.0000  0.0000  0.0000  0.0000  0.0000  0.0000 </r>
       </set>
       <set comment="band 10">
        <r>  0.0006  0.0000  0.0005  0.0000  0.0000  0.0000  0.0000  0.0000  0.0000 </r>
        <r>  0.0006  0.0000  0.0005  0.0000  0.0000  0.0000  0.0000  0.0000  0.0000 </r>
       </set>
       <set comment="band 11">
        <r>  0.0000  0.0000  0.0000  0.0001  0.0000  0.0000  0.0000  0.0000  0.0000 </r>
        <r>  0.0000  0.0000  0.0000  0.0001  0.0000  0.0000  0.0000  0.0000  0.0000 </r>
       </set>
       <set comment="band 12">
        <r>  0.0000  0.0001  0.0000  0.0000  0.0000  0.0000  0.0000  0.0000  0.0000 </r>
        <r>  0.0000  0.0001  0.0000  0.0000  0.0000  0.0000  0.0000  0.0000  0.0000 </r>
       </set>
      </set>
     </set>
     <set comment="spin2">
      <set comment="kpoint 1">
       <set comment="band 1">
        <r>  0.3948  0.0000  0.1083  0.0000  0.0000  0.0000  0.0000  0.0000  0.0000 </r>
        <r>  0.3948  0.0000  0.1083  0.0000  0.0000  0.0000  0.0000  0.0000  0.0000 </r>
       </set>
       <set comment="band 2">
        <r>  0.3636  0.0000  0.0459  0.0000  0.0000  0.0000  0.0000  0.0000  0.0000 </r>
        <r>  0.3636  0.0000  0.0459  0.0000  0.0000  0.0000  0.0000  0.0000  0.0000 </r>
       </set>
       <set comment="band 3">
        <r>  0.0467  0.0000  0.3687  0.0000  0.0000  0.0000  0.0000  0.0000  0.0000 </r>
        <r>  0.0467  0.0000  0.3687  0.0000  0.0000  0.0000  0.0000  0.0000  0.0000 </r>
       </set>
       <set comment="band 4">
        <r>  0.0000  0.0000  0.0000  0.3591  0.0000  0.0000  0.0000  0.0000  0.0000 </r>
        <r>  0.0000  0.0000  0.0000  0.3591  0.0000  0.0000  0.0000  0.0000  0.0000 </r>
       </set>
       <set comment="band 5">
        <r>  0.0000  0.3591  0.0000  0.0000  0.0000  0.0000  0.0000  0.0000  0.0000 </r>
        <r>  0.0000  0.3591  0.0000  0.0000  0.0000  0.0000  0.0000  0.0000  0.0000 </r>
       </set>
       <set comment="band 6">
        <r>  0.0000  0.0000  0.0000  0.3727  0.0000  0.0000  0.0000  0.0000  0.0000 </r>
        <r>  0.0000  0.0000  0.0000  0.3727  0.0000  0.0000  0.0000  0.0000  0.0000 </r>
       </set>
       <set comment="band 7">
        <r>  0.0000  0.3727  0.0000  0.0000  0.0000  0.0000  0.0000  0.0000  0.0000 </r>
        <r>  0.0000  0.3727  0.0000  0.0000  0.0000  0.0000  0.0000  0.0000  0.0000 </r>
       </set>
       <set comment="band 8">
        <r>  0.0023  0.0000  0.0014  0.0000  0.0000  0.0000  0.0000  0.0000  0.0000 </r>
        <r>  0.0023  0.0000  0.0014  0.0000  0.0000  0.0000  0.0000  0.0000  0.0000 </r>
       </set>
       <set comment="band 9">
        <r>  0.0013  0.0000  0.0008  0.0000  0.0000  0.0000  0.0000  0.0000  0.0000 </r>
        <r>  0.0013  0.0000  0.0008  0.0000  0.0000  0.0000  0.0000  0.0000  0.0000 </r>
       </set>
       <set comment="band 10">
        <r>  0.0002  0.0000  0.0001  0.0000  0.0000  0.0000  0.0000  0.0000  0.0000 </r>
        <r>  0.0002  0.0000  0.0001  0.0000  0.0000  0.0000  0.0000  0.0000  0.0000 </r>
       </set>
       <set comment="band 11">
        <r>  0.0000  0.0000  0.0000  0.0001  0.0000  0.0000  0.0000  0.0000  0.0000 </r>
        <r>  0.0000  0.0000  0.0000  0.0001  0.0000  0.0000  0.0000  0.0000  0.0000 </r>
       </set>
       <set comment="band 12">
        <r>  0.0000  0.0001  0.0000  0.0000  0.0000  0.0000  0.0000  0.0000  0.0000 </r>
        <r>  0.0000  0.0001  0.0000  0.0000  0.0000  0.0000  0.0000  0.0000  0.0000 </r>
       </set>
      </set>
     </set>
    </set>
   </array>
  </projected>
 </calculation>
 <structure name="finalpos" >
  <crystal>
   <varray name="basis" >
    <v>      30.01000000       0.00000000       0.00000000 </v>
    <v>       0.00000000      30.00000000       0.00000000 </v>
    <v>       0.00000000       0.00000000      29.99000000 </v>
   </varray>
   <i name="volume">  26999.99700000 </i>
   <varray name="rec_basis" >
    <v>       0.03332223       0.00000000       0.00000000 </v>
    <v>       0.00000000       0.03333333       0.00000000 </v>
    <v>       0.00000000       0.00000000       0.03334445 </v>
   </varray>
  </crystal>
  <varray name="positions" >
   <v>       0.49983339       0.50000000       0.49987165 </v>
   <v>       0.49983339       0.50000000       0.54080857 </v>
  </varray>
 </structure>
</modeling>
