<?xml version="1.0" encoding="ISO-8859-1"?>
<modeling>
 <generator>
  <i name="program" type="string">vasp </i>
  <i name="version" type="string">6.2.0  </i>
  <i name="subversion" type="string">18Jan21 (build Feb 15 2021 19:12:26) complex                          parallel </i>
  <i name="platform" type="string">LinuxIFC-AVX-CX1-JMF-Aug2020 </i>
  <i name="date" type="string">2024 01 25 </i>
  <i name="time" type="string">09:08:10 </i>
 </generator>
 <incar>
  <i type="string" name="PREC">Accurate</i>
  <i type="string" name="ALGO">Normal</i>
  <i type="int" name="ICHARG">     1</i>
  <i type="int" name="NELM">   120</i>
  <i type="int" name="IBRION">     2</i>
  <i name="EDIFF">      0.00000060</i>
  <i name="EDIFFG">     -0.01000000</i>
  <i type="int" name="NSW">   100</i>
  <i type="int" name="ISIF">     3</i>
  <i name="ENCUT">    450.00000000</i>
  <i type="int" name="NEDOS">  2000</i>
  <i type="string" name="LREAL">Auto</i>
  <i type="int" name="ISMEAR">     1</i>
  <i name="SIGMA">      0.20000000</i>
  <i type="int" name="LORBIT">    11</i>
  <i type="logical" name="LASPH"> T  </i>
  <i name="HFSCREEN">      0.00000000</i>
  <i type="logical" name="LHFCALC"> F  </i>
  <i type="string" name="GGA">Ps</i>
 </incar>
 <primitive_cell>
  <structure name="primitive_cell" >
   <crystal>
    <varray name="basis" >
     <v>       7.96016253      -1.57326895       0.05058524 </v>
     <v>       7.96016253       1.57326895       0.05058524 </v>
     <v>       7.63202560       0.00000000       2.75573909 </v>
    </varray>
    <i name="volume">     67.80809078 </i>
    <varray name="rec_basis" >
     <v>       0.06393807      -0.31780962      -0.17707664 </v>
     <v>       0.06393807       0.31780962      -0.17707664 </v>
     <v>      -0.00234734       0.00000000       0.36938001 </v>
    </varray>
   </crystal>
   <varray name="positions" >
    <v>       0.00000000       0.00000000       0.00000000 </v>
    <v>       0.22212257       0.22212257       0.22212257 </v>
    <v>       0.77787743       0.77787743       0.77787743 </v>
   </varray>
  </structure>
  <varray name="primitive_index" >
   <v type="int" >        1 </v>
   <v type="int" >        2 </v>
   <v type="int" >        3 </v>
  </varray>
 </primitive_cell>
 <kpoints>
  <generation param="Gamma">
   <v type="int" name="divisions">       7        7        7 </v>
   <v name="usershift">      0.00000000       0.00000000       0.00000000 </v>
   <v name="genvec1">      0.14285714      -0.00000000      -0.00000000 </v>
   <v name="genvec2">     -0.00000000       0.14285714      -0.00000000 </v>
   <v name="genvec3">      0.00000000       0.00000000       0.14285714 </v>
   <v name="shift">      0.00000000       0.00000000       0.00000000 </v>
  </generation>
  <varray name="kpointlist" >
   <v>       0.00000000       0.00000000       0.00000000 </v>
   <v>       0.14285714       0.00000000      -0.00000000 </v>
   <v>       0.28571429       0.00000000      -0.00000000 </v>
   <v>       0.42857143       0.00000000      -0.00000000 </v>
   <v>       0.14285714       0.14285714      -0.00000000 </v>
   <v>       0.28571429       0.14285714      -0.00000000 </v>
   <v>       0.42857143       0.14285714      -0.00000000 </v>
   <v>      -0.42857143       0.14285714       0.00000000 </v>
   <v>      -0.28571429       0.14285714       0.00000000 </v>
   <v>      -0.14285714       0.14285714       0.00000000 </v>
   <v>       0.28571429       0.28571429      -0.00000000 </v>
   <v>       0.42857143       0.28571429      -0.00000000 </v>
   <v>      -0.42857143       0.28571429       0.00000000 </v>
   <v>      -0.28571429       0.28571429       0.00000000 </v>
   <v>       0.42857143       0.42857143      -0.00000000 </v>
   <v>      -0.42857143       0.42857143       0.00000000 </v>
   <v>       0.14285714       0.14285714       0.14285714 </v>
   <v>       0.28571429       0.14285714       0.14285714 </v>
   <v>       0.42857143       0.14285714       0.14285714 </v>
   <v>      -0.42857143       0.14285714       0.14285714 </v>
   <v>      -0.28571429       0.14285714       0.14285714 </v>
   <v>      -0.14285714       0.14285714       0.14285714 </v>
   <v>       0.28571429       0.28571429       0.14285714 </v>
   <v>       0.42857143       0.28571429       0.14285714 </v>
   <v>      -0.42857143       0.28571429       0.14285714 </v>
   <v>      -0.28571429       0.28571429       0.14285714 </v>
   <v>      -0.14285714       0.28571429       0.14285714 </v>
   <v>       0.42857143       0.42857143       0.14285714 </v>
   <v>      -0.42857143       0.42857143       0.14285714 </v>
   <v>      -0.28571429       0.42857143       0.14285714 </v>
   <v>      -0.14285714       0.42857143       0.14285714 </v>
   <v>      -0.42857143      -0.42857143       0.14285714 </v>
   <v>      -0.28571429      -0.42857143       0.14285714 </v>
   <v>      -0.28571429      -0.28571429       0.14285714 </v>
   <v>       0.28571429       0.28571429       0.28571429 </v>
   <v>       0.42857143       0.28571429       0.28571429 </v>
   <v>      -0.42857143       0.28571429       0.28571429 </v>
   <v>      -0.28571429       0.28571429       0.28571429 </v>
   <v>       0.42857143       0.42857143       0.28571429 </v>
   <v>      -0.42857143       0.42857143       0.28571429 </v>
   <v>      -0.28571429       0.42857143       0.28571429 </v>
   <v>      -0.42857143      -0.42857143       0.28571429 </v>
   <v>       0.42857143       0.42857143       0.42857143 </v>
   <v>      -0.42857143       0.42857143       0.42857143 </v>
  </varray>
  <varray name="weights" >
   <v>       0.00291545 </v>
   <v>       0.01749271 </v>
   <v>       0.01749271 </v>
   <v>       0.01749271 </v>
   <v>       0.01749271 </v>
   <v>       0.03498542 </v>
   <v>       0.03498542 </v>
   <v>       0.03498542 </v>
   <v>       0.03498542 </v>
   <v>       0.01749271 </v>
   <v>       0.01749271 </v>
   <v>       0.03498542 </v>
   <v>       0.03498542 </v>
   <v>       0.01749271 </v>
   <v>       0.01749271 </v>
   <v>       0.01749271 </v>
   <v>       0.00583090 </v>
   <v>       0.01749271 </v>
   <v>       0.01749271 </v>
   <v>       0.01749271 </v>
   <v>       0.01749271 </v>
   <v>       0.01749271 </v>
   <v>       0.01749271 </v>
   <v>       0.03498542 </v>
   <v>       0.03498542 </v>
   <v>       0.03498542 </v>
   <v>       0.03498542 </v>
   <v>       0.01749271 </v>
   <v>       0.03498542 </v>
   <v>       0.03498542 </v>
   <v>       0.03498542 </v>
   <v>       0.01749271 </v>
   <v>       0.03498542 </v>
   <v>       0.01749271 </v>
   <v>       0.00583090 </v>
   <v>       0.01749271 </v>
   <v>       0.01749271 </v>
   <v>       0.01749271 </v>
   <v>       0.01749271 </v>
   <v>       0.03498542 </v>
   <v>       0.03498542 </v>
   <v>       0.01749271 </v>
   <v>       0.00583090 </v>
   <v>       0.01749271 </v>
  </varray>
 </kpoints>
 <parameters>
  <separator name="general" >
   <i type="string" name="SYSTEM">unknown system</i>
   <i type="logical" name="LCOMPAT"> F  </i>
  </separator>
  <separator name="electronic" >
   <i type="string" name="PREC">accura</i>
   <i name="ENMAX">    450.00000000</i>
   <i name="ENAUG">    454.73400000</i>
   <i name="EDIFF">      0.00000060</i>
   <i type="int" name="IALGO">    38</i>
   <i type="int" name="IWAVPR">    11</i>
   <i type="int" name="NBANDS">    12</i>
   <i type="int" name="NBANDSLOW">    -1</i>
   <i type="int" name="NBANDSHIGH">    -1</i>
   <i name="NELECT">      6.00000000</i>
   <i type="int" name="TURBO">     0</i>
   <i type="int" name="IRESTART">     0</i>
   <i type="int" name="NREBOOT">     0</i>
   <i type="int" name="NMIN">     0</i>
   <i name="EREF">      0.00000000</i>
   <separator name="electronic smearing" >
    <i type="int" name="ISMEAR">     1</i>
    <i name="SIGMA">      0.20000000</i>
    <i name="KSPACING">      0.50000000</i>
    <i type="logical" name="KGAMMA"> T  </i>
    <i type="logical" name="KBLOWUP"> T  </i>
   </separator>
   <separator name="electronic projectors" >
    <i type="logical" name="LREAL"> T  </i>
    <v name="ROPT">     -0.00025000</v>
    <i type="int" name="LMAXPAW">  -100</i>
    <i type="int" name="LMAXMIX">     2</i>
    <i type="logical" name="NLSPLINE"> F  </i>
   </separator>
   <separator name="electronic startup" >
    <i type="int" name="ISTART">     1</i>
    <i type="int" name="ICHARG">     1</i>
    <i type="int" name="INIWAV">     1</i>
   </separator>
   <separator name="electronic spin" >
    <i type="int" name="ISPIN">     1</i>
    <i type="logical" name="LNONCOLLINEAR"> F  </i>
    <v name="MAGMOM">      1.00000000      1.00000000      1.00000000</v>
    <i name="NUPDOWN">     -1.00000000</i>
    <i type="logical" name="LSORBIT"> F  </i>
    <v name="SAXIS">      0.00000000      0.00000000      1.00000000</v>
    <i type="logical" name="LSPIRAL"> F  </i>
    <v name="QSPIRAL">      0.00000000      0.00000000      0.00000000</v>
    <i type="logical" name="LZEROZ"> F  </i>
   </separator>
   <separator name="electronic exchange-correlation" >
    <i type="logical" name="LASPH"> T  </i>
    <i type="logical" name="LMETAGGA"> F  </i>
   </separator>
   <separator name="electronic convergence" >
    <i type="int" name="NELM">   120</i>
    <i type="int" name="NELMDL">     0</i>
    <i type="int" name="NELMIN">     2</i>
    <i name="ENINI">    450.00000000</i>
    <separator name="electronic convergence detail" >
     <i type="logical" name="LDIAG"> T  </i>
     <i type="logical" name="LSUBROT"> F  </i>
     <i name="WEIMIN">      0.00100000</i>
     <i name="EBREAK">      0.00000001</i>
     <i name="DEPER">      0.30000000</i>
     <i type="int" name="NRMM">     4</i>
     <i name="TIME">      0.40000000</i>
    </separator>
   </separator>
   <separator name="electronic mixer" >
    <i name="AMIX">      0.40000000</i>
    <i name="BMIX">      1.00000000</i>
    <i name="AMIN">      0.10000000</i>
    <i name="AMIX_MAG">      1.60000000</i>
    <i name="BMIX_MAG">      1.00000000</i>
    <separator name="electronic mixer details" >
     <i type="int" name="IMIX">     4</i>
     <i type="logical" name="MIXFIRST"> F  </i>
     <i type="int" name="MAXMIX">   -45</i>
     <i name="WC">    100.00000000</i>
     <i type="int" name="INIMIX">     1</i>
     <i type="int" name="MIXPRE">     1</i>
     <i type="int" name="MREMOVE">     5</i>
    </separator>
   </separator>
   <separator name="electronic dipolcorrection" >
    <i type="logical" name="LDIPOL"> F  </i>
    <i type="logical" name="LMONO"> F  </i>
    <i type="int" name="IDIPOL">     0</i>
    <i name="EPSILON">      1.00000000</i>
    <v name="DIPOL">   -100.00000000   -100.00000000   -100.00000000</v>
    <i name="EFIELD">      0.00000000</i>
   </separator>
  </separator>
  <separator name="grids" >
   <i type="int" name="NGX">    56</i>
   <i type="int" name="NGY">    56</i>
   <i type="int" name="NGZ">    56</i>
   <i type="int" name="NGXF">   112</i>
   <i type="int" name="NGYF">   112</i>
   <i type="int" name="NGZF">   112</i>
   <i type="logical" name="ADDGRID"> F  </i>
  </separator>
  <separator name="ionic" >
   <i type="int" name="NSW">   100</i>
   <i type="int" name="IBRION">     2</i>
   <i type="int" name="MDALGO">     0</i>
   <i type="int" name="ISIF">     3</i>
   <i name="PSTRESS">      0.00000000</i>
   <i name="EDIFFG">     -0.01000000</i>
   <i type="int" name="NFREE">     1</i>
   <i name="POTIM">      0.50000000</i>
   <i name="SMASS">     -3.00000000</i>
   <i name="SCALEE">      1.00000000</i>
  </separator>
  <separator name="ionic md" >
   <i name="TEBEG">      0.00010000</i>
   <i name="TEEND">      0.00010000</i>
   <i type="int" name="NBLOCK">     1</i>
   <i type="int" name="KBLOCK">   100</i>
   <i type="int" name="NPACO">   256</i>
   <i name="APACO">     16.00000000</i>
  </separator>
  <separator name="symmetry" >
   <i type="int" name="ISYM">     2</i>
   <i name="SYMPREC">      0.00001000</i>
  </separator>
  <separator name="dos" >
   <i type="int" name="LORBIT">    11</i>
   <v name="RWIGS">     -1.00000000</v>
   <i type="int" name="NEDOS">  2000</i>
   <i name="EMIN">     10.00000000</i>
   <i name="EMAX">    -10.00000000</i>
   <i name="EFERMI">      0.00000000</i>
  </separator>
  <separator name="writing" >
   <i type="int" name="NWRITE">     2</i>
   <i type="logical" name="LWAVE"> T  </i>
   <i type="logical" name="LDOWNSAMPLE"> F  </i>
   <i type="logical" name="LCHARG"> T  </i>
   <i type="logical" name="LPARD"> F  </i>
   <i type="logical" name="LVTOT"> F  </i>
   <i type="logical" name="LVHAR"> F  </i>
   <i type="logical" name="LELF"> F  </i>
   <i type="logical" name="LOPTICS"> F  </i>
   <v name="STM">      0.00000000      0.00000000      0.00000000      0.00000000      0.00000000      0.00000000      0.00000000</v>
  </separator>
  <separator name="performance" >
   <i type="int" name="NPAR">     6</i>
   <i type="int" name="NSIM">     4</i>
   <i type="int" name="NBLK">    -1</i>
   <i type="logical" name="LPLANE"> T  </i>
   <i type="logical" name="LSCALAPACK"> T  </i>
   <i type="logical" name="LSCAAWARE"> F  </i>
   <i type="logical" name="LSCALU"> F  </i>
   <i type="logical" name="LASYNC"> F  </i>
   <i type="logical" name="LORBITALREAL"> F  </i>
  </separator>
  <separator name="miscellaneous" >
   <i type="int" name="IDIOT">     3</i>
   <i type="int" name="PHON_NSTRUCT">    -1</i>
   <i type="logical" name="LMUSIC"> F  </i>
   <v name="POMASS">     24.30500000</v>
   <v name="DARWINR">      0.00000000</v>
   <v name="DARWINV">      1.00000000</v>
   <i type="logical" name="LCORR"> T  </i>
  </separator>
  <i type="logical" name="GGA_COMPAT"> T  </i>
  <i type="logical" name="LBERRY"> F  </i>
  <i type="int" name="ICORELEVEL">     0</i>
  <i type="logical" name="LDAU"> F  </i>
  <i type="int" name="I_CONSTRAINED_M">     0</i>
  <separator name="electronic exchange-correlation" >
   <i type="string" name="GGA">PS</i>
   <i type="int" name="VOSKOWN">     0</i>
   <i type="logical" name="LHFCALC"> F  </i>
   <i type="string" name="PRECFOCK"></i>
   <i type="logical" name="LSYMGRAD"> F  </i>
   <i type="logical" name="LHFONE"> F  </i>
   <i type="logical" name="LRHFCALC"> F  </i>
   <i type="logical" name="LTHOMAS"> F  </i>
   <i type="logical" name="LMODELHF"> F  </i>
   <i type="logical" name="LFOCKACE"> F  </i>
   <i name="ENCUT4O">     -1.00000000</i>
   <i type="int" name="EXXOEP">     0</i>
   <i type="int" name="FOURORBIT">     0</i>
   <i name="AEXX">      0.00000000</i>
   <i name="HFALPHA">      0.00000000</i>
   <i name="MCALPHA">      0.00000000</i>
   <i name="ALDAX">      1.00000000</i>
   <i name="AGGAX">      1.00000000</i>
   <i name="ALDAC">      1.00000000</i>
   <i name="AGGAC">      1.00000000</i>
   <i type="int" name="NKREDX">     1</i>
   <i type="int" name="NKREDY">     1</i>
   <i type="int" name="NKREDZ">     1</i>
   <i type="logical" name="SHIFTRED"> F  </i>
   <i type="logical" name="ODDONLY"> F  </i>
   <i type="logical" name="EVENONLY"> F  </i>
   <i type="int" name="LMAXFOCK">     0</i>
   <i type="int" name="NMAXFOCKAE">     0</i>
   <i type="logical" name="LFOCKAEDFT"> F  </i>
   <i name="HFSCREEN">      0.00000000</i>
   <i name="HFSCREENC">      0.00000000</i>
   <i type="int" name="NBANDSGWLOW">     0</i>
  </separator>
  <separator name="vdW DFT" >
   <i type="logical" name="LUSE_VDW"> F  </i>
   <i name="Zab_VDW">     -0.84910000</i>
   <i name="PARAM1">      0.12340000</i>
   <i name="PARAM2">      1.00000000</i>
   <i name="PARAM3">      0.00000000</i>
  </separator>
  <separator name="model GW" >
   <i type="int" name="MODEL_GW">     0</i>
   <i name="MODEL_EPS0">     13.56161816</i>
   <i name="MODEL_ALPHA">      1.00000000</i>
  </separator>
  <separator name="linear response parameters" >
   <i type="logical" name="LEPSILON"> F  </i>
   <i type="logical" name="LRPA"> F  </i>
   <i type="logical" name="LNABLA"> F  </i>
   <i type="logical" name="LVEL"> F  </i>
   <i type="int" name="KINTER">     0</i>
   <i name="CSHIFT">      0.10000000</i>
   <i name="OMEGAMAX">     -1.00000000</i>
   <i name="DEG_THRESHOLD">      0.00200000</i>
   <i name="RTIME">     -0.10000000</i>
   <i name="WPLASMAI">      0.00000000</i>
   <v name="DFIELD">      0.00000000      0.00000000      0.00000000</v>
   <v name="WPLASMA">      0.00000000      0.00000000      0.00000000      0.00000000      0.00000000      0.00000000      0.00000000      0.00000000      0.00000000</v>
  </separator>
  <separator name="orbital magnetization" >
   <i type="logical" name="NUCIND"> F  </i>
   <v name="MAGPOS">      0.00000000      0.00000000      0.00000000</v>
   <i type="logical" name="LNICSALL"> T  </i>
   <i type="logical" name="ORBITALMAG"> F  </i>
   <i type="logical" name="LMAGBLOCH"> F  </i>
   <i type="logical" name="LCHIMAG"> F  </i>
   <i type="logical" name="LGAUGE"> T  </i>
   <i type="int" name="MAGATOM">     0</i>
   <v name="MAGDIPOL">      0.00000000      0.00000000      0.00000000</v>
   <v name="AVECCONST">      0.00000000      0.00000000      0.00000000</v>
  </separator>
  <separator name="response functions" >
   <i type="logical" name="LFINITE_TEMPERATURE"> F  </i>
   <i type="logical" name="LADDER"> F  </i>
   <i type="logical" name="LRPAFORCE"> F  </i>
   <i type="logical" name="LFXC"> F  </i>
   <i type="logical" name="LHARTREE"> T  </i>
   <i type="int" name="IBSE">     0</i>
   <v type="int" name="KPOINT">    -1     0     0     0</v>
   <i type="logical" name="LTCTC"> F  </i>
   <i type="logical" name="LTCTE"> F  </i>
   <i type="logical" name="LTETE"> F  </i>
   <i type="logical" name="LTRIPLET"> F  </i>
   <i type="logical" name="LFXCEPS"> F  </i>
   <i type="logical" name="LFXHEG"> F  </i>
   <i type="int" name="NATURALO">     2</i>
   <i type="logical" name="LHOLEGF"> F  </i>
   <i type="logical" name="L2ORDER"> F  </i>
   <i type="logical" name="LDMP1"> F  </i>
   <i type="logical" name="LMP2LT"> F  </i>
   <i type="logical" name="LSMP2LT"> F  </i>
   <i type="logical" name="LGWLF"> F  </i>
   <i name="ENCUTGW">     -2.00000000</i>
   <i name="ENCUTGWSOFT">     -2.00000000</i>
   <i name="ENCUTLF">     -1.00000000</i>
   <i type="logical" name="LESF_SPLINES"> F  </i>
   <i type="int" name="LMAXMP2">    -1</i>
   <i name="SCISSOR">      0.00000000</i>
   <i type="int" name="NOMEGA">     0</i>
   <i type="int" name="NOMEGAR">     0</i>
   <i type="int" name="NBANDSGW">    -1</i>
   <i type="int" name="NBANDSO">    -1</i>
   <i type="int" name="NBANDSV">    -1</i>
   <i type="int" name="NELM">   120</i>
   <i type="int" name="NELMHF">     1</i>
   <i type="int" name="DIM">     3</i>
   <i type="int" name="IESPILON">     4</i>
   <i type="int" name="ANTIRES">     0</i>
   <i name="OMEGAMAX">    -30.00000000</i>
   <i name="OMEGAMIN">    -30.00000000</i>
   <i name="OMEGATL">   -200.00000000</i>
   <i type="int" name="OMEGAGRID">     0</i>
   <i name="CSHIFT">     -0.10000000</i>
   <i type="logical" name="LSELFENERGY"> F  </i>
   <i type="logical" name="LSPECTRAL"> F  </i>
   <i type="logical" name="LSPECTRALGW"> F  </i>
   <i type="logical" name="LSINGLES"> F  </i>
   <i type="logical" name="LFERMIGW"> F  </i>
   <i type="logical" name="ODDONLYGW"> F  </i>
   <i type="logical" name="EVENONLYGW"> F  </i>
   <i type="int" name="NKREDLFX">     1</i>
   <i type="int" name="NKREDLFY">     1</i>
   <i type="int" name="NKREDLFZ">     1</i>
   <i type="int" name="MAXMEM">  2800</i>
   <i type="int" name="TELESCOPE">     0</i>
   <i type="int" name="NTAUPAR">    -1</i>
   <i type="int" name="NOMEGAPAR">    -1</i>
   <i name="DAMP_NEWTON">      0.80000001</i>
   <i name="LAMBDA">      1.00000000</i>
  </separator>
  <separator name="External order field" >
   <i name="OFIELD_KAPPA">      0.00000000</i>
   <v name="OFIELD_K">      0.00000000      0.00000000      0.00000000</v>
   <i name="OFIELD_Q6_NEAR">      0.00000000</i>
   <i name="OFIELD_Q6_FAR">      0.00000000</i>
   <i name="OFIELD_A">      0.00000000</i>
  </separator>
 </parameters>
 <atominfo>
  <atoms>       3 </atoms>
  <types>       1 </types>
  <array name="atoms" >
   <dimension dim="1">ion</dimension>
   <field type="string">element</field>
   <field type="int">atomtype</field>
   <set>
    <rc><c>Mg</c><c>   1</c></rc>
    <rc><c>Mg</c><c>   1</c></rc>
    <rc><c>Mg</c><c>   1</c></rc>
   </set>
  </array>
  <array name="atomtypes" >
   <dimension dim="1">type</dimension>
   <field type="int">atomspertype</field>
   <field type="string">element</field>
   <field>mass</field>
   <field>valence</field>
   <field type="string">pseudopotential</field>
   <set>
    <rc><c>   3</c><c>Mg</c><c>     24.30500000</c><c>      2.00000000</c><c>  PAW_PBE Mg 13Apr2007                  </c></rc>
   </set>
  </array>
 </atominfo>
 <structure name="initialpos" >
  <crystal>
   <varray name="basis" >
    <v>       7.96016253      -1.57326895       0.05058524 </v>
    <v>       7.96016253       1.57326895       0.05058524 </v>
    <v>       7.63202560       0.00000000       2.75573909 </v>
   </varray>
   <i name="volume">     67.80809078 </i>
   <varray name="rec_basis" >
    <v>       0.06393807      -0.31780962      -0.17707664 </v>
    <v>       0.06393807       0.31780962      -0.17707664 </v>
    <v>      -0.00234734       0.00000000       0.36938001 </v>
   </varray>
  </crystal>
  <varray name="positions" >
   <v>       0.00000000       0.00000000       0.00000000 </v>
   <v>       0.22212257       0.22212257       0.22212257 </v>
   <v>       0.77787743       0.77787743       0.77787743 </v>
  </varray>
 </structure>
 <calculation>
  <scstep>
   <time name="dav">    0.63    0.64</time>
   <time name="total">    0.88    0.89</time>
   <energy>
    <i name="alphaZ">      5.97349646 </i>
    <i name="ewald">    -88.24901647 </i>
    <i name="hartreedc">     -0.08560313 </i>
    <i name="XCdc">   -143.04827944 </i>
    <i name="pawpsdc">    192.14859418 </i>
    <i name="pawaedc">    -39.81187044 </i>
    <i name="eentropy">     -0.00225287 </i>
    <i name="bandstr">     -0.47650375 </i>
    <i name="atom">     68.33991385 </i>
    <i name="e_fr_energy">     -5.21152160 </i>
    <i name="e_wo_entrp">     -5.20926873 </i>
    <i name="e_0_energy">     -5.21077064 </i>
   </energy>
  </scstep>
  <scstep>
   <time name="dav">    0.61    0.61</time>
   <time name="total">    0.85    0.85</time>
   <energy>
    <i name="e_fr_energy">     -5.19601255 </i>
    <i name="e_wo_entrp">     -5.19371394 </i>
    <i name="e_0_energy">     -5.19524635 </i>
   </energy>
  </scstep>
  <scstep>
   <time name="dav">    0.61    0.61</time>
   <time name="total">    0.83    0.83</time>
   <energy>
    <i name="e_fr_energy">     -5.18215456 </i>
    <i name="e_wo_entrp">     -5.17978353 </i>
    <i name="e_0_energy">     -5.18136421 </i>
   </energy>
  </scstep>
  <scstep>
   <time name="dav">    0.90    0.90</time>
   <time name="total">    1.11    1.12</time>
   <energy>
    <i name="e_fr_energy">     -5.18215433 </i>
    <i name="e_wo_entrp">     -5.17978575 </i>
    <i name="e_0_energy">     -5.18136480 </i>
   </energy>
  </scstep>
  <scstep>
   <time name="dav">    0.69    0.69</time>
   <time name="total">    0.94    0.97</time>
   <energy>
    <i name="e_fr_energy">     -5.18215316 </i>
    <i name="e_wo_entrp">     -5.17978685 </i>
    <i name="e_0_energy">     -5.18136439 </i>
   </energy>
  </scstep>
  <scstep>
   <time name="dav">    0.50    0.50</time>
   <time name="total">    0.66    0.68</time>
   <energy>
    <i name="alphaZ">      5.97349646 </i>
    <i name="ewald">    -88.24901647 </i>
    <i name="hartreedc">     -0.17290984 </i>
    <i name="XCdc">   -142.79865011 </i>
    <i name="pawpsdc">    175.64604243 </i>
    <i name="pawaedc">    -23.33116458 </i>
    <i name="eentropy">     -0.00236617 </i>
    <i name="bandstr">     -0.58749867 </i>
    <i name="atom">     68.33991385 </i>
    <i name="e_fr_energy">     -5.18215311 </i>
    <i name="e_wo_entrp">     -5.17978694 </i>
    <i name="e_0_energy">     -5.18136438 </i>
   </energy>
  </scstep>
  <structure>
   <crystal>
    <varray name="basis" >
     <v>       7.96016253      -1.57326895       0.05058524 </v>
     <v>       7.96016253       1.57326895       0.05058524 </v>
     <v>       7.63202560       0.00000000       2.75573909 </v>
    </varray>
    <i name="volume">     67.80809078 </i>
    <varray name="rec_basis" >
     <v>       0.06393807      -0.31780962      -0.17707664 </v>
     <v>       0.06393807       0.31780962      -0.17707664 </v>
     <v>      -0.00234734       0.00000000       0.36938001 </v>
    </varray>
   </crystal>
   <varray name="positions" >
    <v>       0.00000000       0.00000000       0.00000000 </v>
    <v>       0.22212257       0.22212257       0.22212257 </v>
    <v>       0.77787743       0.77787743       0.77787743 </v>
   </varray>
  </structure>
  <varray name="forces" >
   <v>      -0.00000000       0.00000000       0.00000000 </v>
   <v>      -0.00115980       0.00000000      -0.00014068 </v>
   <v>       0.00115980       0.00000000       0.00014068 </v>
  </varray>
  <varray name="stress" >
   <v>       0.55815984       0.00000000       0.05650405 </v>
   <v>      -0.00000000       0.09234044       0.00000000 </v>
   <v>       0.05650405       0.00000000       0.09919447 </v>
  </varray>
  <energy>
   <i name="e_fr_energy">     -5.18215311 </i>
   <i name="e_wo_entrp">     -5.17978694 </i>
   <i name="e_0_energy">     -5.18136438 </i>
  </energy>
  <time name="totalsc">    8.46    8.93</time>
  <eigenvalues>
   <array>
    <dimension dim="1">band</dimension>
    <dimension dim="2">kpoint</dimension>
    <dimension dim="3">spin</dimension>
    <field>eigene</field>
    <field>occ</field>
    <set>
     <set comment="spin 1">
      <set comment="kpoint 1">
       <r>   -4.3238    1.0000 </r>
       <r>   -1.9437    1.0000 </r>
       <r>   -1.9361    1.0000 </r>
       <r>    4.9328   -0.0000 </r>
       <r>    4.9339   -0.0000 </r>
       <r>   14.2335    0.0000 </r>
       <r>   14.2336    0.0000 </r>
       <r>   14.4064    0.0000 </r>
       <r>   14.4064    0.0000 </r>
       <r>   14.4215    0.0000 </r>
       <r>   14.6003    0.0000 </r>
       <r>   14.6003    0.0000 </r>
      </set>
      <set comment="kpoint 2">
       <r>   -3.9044    1.0000 </r>
       <r>   -1.7546    1.0000 </r>
       <r>   -1.3081    1.0000 </r>
       <r>    4.8788   -0.0000 </r>
       <r>    5.7205   -0.0000 </r>
       <r>   10.0456    0.0000 </r>
       <r>   10.9201    0.0000 </r>
       <r>   12.3703    0.0000 </r>
       <r>   12.6520    0.0000 </r>
       <r>   12.8519    0.0000 </r>
       <r>   13.8097    0.0000 </r>
       <r>   14.3029    0.0000 </r>
      </set>
      <set comment="kpoint 3">
       <r>   -2.6576    1.0000 </r>
       <r>   -0.7582    1.0000 </r>
       <r>    0.1211    1.0000 </r>
       <r>    5.2120   -0.0000 </r>
       <r>    6.1381   -0.0000 </r>
       <r>    6.8111   -0.0000 </r>
       <r>    7.5451   -0.0000 </r>
       <r>    8.9029    0.0000 </r>
       <r>   11.0786    0.0000 </r>
       <r>   11.3709    0.0000 </r>
       <r>   11.6108    0.0000 </r>
       <r>   12.5258    0.0000 </r>
      </set>
      <set comment="kpoint 4">
       <r>   -0.6184    1.0000 </r>
       <r>    1.0006    1.0000 </r>
       <r>    1.9528    1.0000 </r>
       <r>    2.5829    0.8990 </r>
       <r>    3.6579   -0.0000 </r>
       <r>    5.3122   -0.0000 </r>
       <r>    7.2247   -0.0000 </r>
       <r>    9.2601    0.0000 </r>
       <r>    9.3604    0.0000 </r>
       <r>   10.4802    0.0000 </r>
       <r>   10.5788    0.0000 </r>
       <r>   11.3708    0.0000 </r>
      </set>
      <set comment="kpoint 5">
       <r>   -3.8881    1.0000 </r>
       <r>   -1.9625    1.0000 </r>
       <r>   -1.0700    1.0000 </r>
       <r>    4.4756   -0.0000 </r>
       <r>    6.1444   -0.0000 </r>
       <r>   10.2546    0.0000 </r>
       <r>   10.5656    0.0000 </r>
       <r>   12.1952    0.0000 </r>
       <r>   12.7498    0.0000 </r>
       <r>   13.2471    0.0000 </r>
       <r>   14.1597    0.0000 </r>
       <r>   14.6711    0.0000 </r>
      </set>
      <set comment="kpoint 6">
       <r>   -3.0389    1.0000 </r>
       <r>   -1.3534    1.0000 </r>
       <r>   -0.0281    1.0000 </r>
       <r>    4.7890   -0.0000 </r>
       <r>    7.1220   -0.0000 </r>
       <r>    7.9934   -0.0000 </r>
       <r>    8.4737    0.0000 </r>
       <r>    8.6499    0.0000 </r>
       <r>    9.9008    0.0000 </r>
       <r>   11.1548    0.0000 </r>
       <r>   12.6671    0.0000 </r>
       <r>   13.1663    0.0000 </r>
      </set>
      <set comment="kpoint 7">
       <r>   -1.3802    1.0000 </r>
       <r>    0.0525    1.0000 </r>
       <r>    1.7671    1.0000 </r>
       <r>    4.0636   -0.0000 </r>
       <r>    5.5828   -0.0000 </r>
       <r>    6.0764   -0.0000 </r>
       <r>    6.6892   -0.0000 </r>
       <r>    7.4360   -0.0000 </r>
       <r>    7.9023   -0.0000 </r>
       <r>    9.7918    0.0000 </r>
       <r>   11.4166    0.0000 </r>
       <r>   11.8887    0.0000 </r>
      </set>
      <set comment="kpoint 8">
       <r>    0.9115    1.0000 </r>
       <r>    1.0436    1.0000 </r>
       <r>    2.0697    1.0000 </r>
       <r>    2.9999   -0.0263 </r>
       <r>    3.6499   -0.0000 </r>
       <r>    4.4139   -0.0000 </r>
       <r>    6.7356   -0.0000 </r>
       <r>    7.1048   -0.0000 </r>
       <r>    8.2592    0.0000 </r>
       <r>    9.4390    0.0000 </r>
       <r>   10.9738    0.0000 </r>
       <r>   10.9838    0.0000 </r>
      </set>
      <set comment="kpoint 9">
       <r>   -1.4597    1.0000 </r>
       <r>    0.6258    1.0000 </r>
       <r>    1.0559    1.0000 </r>
       <r>    4.2250   -0.0000 </r>
       <r>    5.1687   -0.0000 </r>
       <r>    6.7278   -0.0000 </r>
       <r>    7.0170   -0.0000 </r>
       <r>    7.5412   -0.0000 </r>
       <r>    8.3134    0.0000 </r>
       <r>    8.8242    0.0000 </r>
       <r>   10.8478    0.0000 </r>
       <r>   11.1225    0.0000 </r>
      </set>
      <set comment="kpoint 10">
       <r>   -3.0876    1.0000 </r>
       <r>   -0.7391    1.0000 </r>
       <r>   -0.7317    1.0000 </r>
       <r>    5.9399   -0.0000 </r>
       <r>    5.9689   -0.0000 </r>
       <r>    8.0511   -0.0000 </r>
       <r>    8.3803    0.0000 </r>
       <r>    8.6553    0.0000 </r>
       <r>    9.7132    0.0000 </r>
       <r>   11.6325    0.0000 </r>
       <r>   12.2028    0.0000 </r>
       <r>   13.7443    0.0000 </r>
      </set>
      <set comment="kpoint 11">
       <r>   -2.5931    1.0000 </r>
       <r>   -1.1378    1.0000 </r>
       <r>    0.6176    1.0000 </r>
       <r>    4.7260   -0.0000 </r>
       <r>    6.1066   -0.0000 </r>
       <r>    6.3403   -0.0000 </r>
       <r>    8.3835    0.0000 </r>
       <r>   10.1738    0.0000 </r>
       <r>   10.3618    0.0000 </r>
       <r>   10.7517    0.0000 </r>
       <r>   12.1967    0.0000 </r>
       <r>   12.5707    0.0000 </r>
      </set>
      <set comment="kpoint 12">
       <r>   -1.3325    1.0000 </r>
       <r>   -0.1190    1.0000 </r>
       <r>    2.0174    1.0000 </r>
       <r>    4.4227   -0.0000 </r>
       <r>    4.7628   -0.0000 </r>
       <r>    5.6089   -0.0000 </r>
       <r>    6.9330   -0.0000 </r>
       <r>    8.5504    0.0000 </r>
       <r>    8.7332    0.0000 </r>
       <r>    9.2585    0.0000 </r>
       <r>   10.1816    0.0000 </r>
       <r>   10.4302    0.0000 </r>
      </set>
      <set comment="kpoint 13">
       <r>    0.7032    1.0000 </r>
       <r>    1.6515    1.0000 </r>
       <r>    3.1471   -0.0031 </r>
       <r>    3.3986   -0.0000 </r>
       <r>    4.0780   -0.0000 </r>
       <r>    4.5002   -0.0000 </r>
       <r>    5.4684   -0.0000 </r>
       <r>    5.9602   -0.0000 </r>
       <r>    7.4772   -0.0000 </r>
       <r>    7.7477   -0.0000 </r>
       <r>    9.5857    0.0000 </r>
       <r>   11.9894    0.0000 </r>
      </set>
      <set comment="kpoint 14">
       <r>    0.5188    1.0000 </r>
       <r>    2.6244    0.7757 </r>
       <r>    2.6484    0.6874 </r>
       <r>    3.4934   -0.0000 </r>
       <r>    3.6281   -0.0000 </r>
       <r>    4.1024   -0.0000 </r>
       <r>    4.8452   -0.0000 </r>
       <r>    7.0409   -0.0000 </r>
       <r>    7.6890   -0.0000 </r>
       <r>    9.1565    0.0000 </r>
       <r>    9.8594    0.0000 </r>
       <r>   10.1699    0.0000 </r>
      </set>
      <set comment="kpoint 15">
       <r>   -0.4770    1.0000 </r>
       <r>    0.4984    1.0000 </r>
       <r>    2.2719    1.0055 </r>
       <r>    3.0172   -0.0223 </r>
       <r>    3.2992   -0.0001 </r>
       <r>    6.0525   -0.0000 </r>
       <r>    6.4146   -0.0000 </r>
       <r>    7.8971   -0.0000 </r>
       <r>   10.0313    0.0000 </r>
       <r>   10.6502    0.0000 </r>
       <r>   11.6447    0.0000 </r>
       <r>   11.8525    0.0000 </r>
      </set>
      <set comment="kpoint 16">
       <r>    1.1066    1.0000 </r>
       <r>    1.2002    1.0000 </r>
       <r>    1.6529    1.0000 </r>
       <r>    2.2579    1.0043 </r>
       <r>    4.7625   -0.0000 </r>
       <r>    5.0865   -0.0000 </r>
       <r>    6.1769   -0.0000 </r>
       <r>    6.9748   -0.0000 </r>
       <r>    8.1704    0.0000 </r>
       <r>    8.7656    0.0000 </r>
       <r>    8.9186    0.0000 </r>
       <r>   13.1635    0.0000 </r>
      </set>
      <set comment="kpoint 17">
       <r>   -4.2746    1.0000 </r>
       <r>   -2.5666    1.0000 </r>
       <r>   -1.2220    1.0000 </r>
       <r>    3.7031   -0.0000 </r>
       <r>    6.2420   -0.0000 </r>
       <r>   13.5861    0.0000 </r>
       <r>   14.1628    0.0000 </r>
       <r>   14.1628    0.0000 </r>
       <r>   14.4961    0.0000 </r>
       <r>   14.4961    0.0000 </r>
       <r>   14.5641    0.0000 </r>
       <r>   14.5641    0.0000 </r>
      </set>
      <set comment="kpoint 18">
       <r>   -3.8227    1.0000 </r>
       <r>   -2.3477    1.0000 </r>
       <r>   -0.5641    1.0000 </r>
       <r>    3.6870   -0.0000 </r>
       <r>    7.0367   -0.0000 </r>
       <r>    9.9133    0.0000 </r>
       <r>   11.3460    0.0000 </r>
       <r>   12.2734    0.0000 </r>
       <r>   12.5373    0.0000 </r>
       <r>   12.6275    0.0000 </r>
       <r>   13.1845    0.0000 </r>
       <r>   14.0662    0.0000 </r>
      </set>
      <set comment="kpoint 19">
       <r>   -2.5448    1.0000 </r>
       <r>   -1.3125    1.0000 </r>
       <r>    0.8812    1.0000 </r>
       <r>    4.3194   -0.0000 </r>
       <r>    5.8581   -0.0000 </r>
       <r>    7.3870   -0.0000 </r>
       <r>    8.1680    0.0000 </r>
       <r>    8.7332    0.0000 </r>
       <r>   11.0819    0.0000 </r>
       <r>   11.3662    0.0000 </r>
       <r>   11.9199    0.0000 </r>
       <r>   12.3685    0.0000 </r>
      </set>
      <set comment="kpoint 20">
       <r>   -0.4772    1.0000 </r>
       <r>    0.5007    1.0000 </r>
       <r>    2.0207    1.0000 </r>
       <r>    3.1917   -0.0012 </r>
       <r>    4.1933   -0.0000 </r>
       <r>    4.6218   -0.0000 </r>
       <r>    6.1551   -0.0000 </r>
       <r>   10.0759    0.0000 </r>
       <r>   10.2504    0.0000 </r>
       <r>   10.3181    0.0000 </r>
       <r>   10.7955    0.0000 </r>
       <r>   11.1357    0.0000 </r>
      </set>
      <set comment="kpoint 21">
       <r>   -0.6655    1.0000 </r>
       <r>    1.5411    1.0000 </r>
       <r>    1.5688    1.0000 </r>
       <r>    2.4810    1.0306 </r>
       <r>    3.2218   -0.0006 </r>
       <r>    6.0778   -0.0000 </r>
       <r>    8.2388    0.0000 </r>
       <r>    8.2996    0.0000 </r>
       <r>    8.3770    0.0000 </r>
       <r>   10.2490    0.0000 </r>
       <r>   10.9202    0.0000 </r>
       <r>   11.6560    0.0000 </r>
      </set>
      <set comment="kpoint 22">
       <r>   -2.6738    1.0000 </r>
       <r>   -0.5531    1.0000 </r>
       <r>   -0.1138    1.0000 </r>
       <r>    5.6590   -0.0000 </r>
       <r>    5.8656   -0.0000 </r>
       <r>    6.7070   -0.0000 </r>
       <r>    7.2479   -0.0000 </r>
       <r>    9.6118    0.0000 </r>
       <r>   10.8742    0.0000 </r>
       <r>   10.9752    0.0000 </r>
       <r>   11.7421    0.0000 </r>
       <r>   12.6916    0.0000 </r>
      </set>
      <set comment="kpoint 23">
       <r>   -3.7738    1.0000 </r>
       <r>   -2.5248    1.0000 </r>
       <r>   -0.2968    1.0000 </r>
       <r>    3.3087   -0.0001 </r>
       <r>    7.4729   -0.0000 </r>
       <r>   10.2617    0.0000 </r>
       <r>   10.5705    0.0000 </r>
       <r>   12.1012    0.0000 </r>
       <r>   12.5615    0.0000 </r>
       <r>   13.2223    0.0000 </r>
       <r>   13.7238    0.0000 </r>
       <r>   14.3525    0.0000 </r>
      </set>
      <set comment="kpoint 24">
       <r>   -2.8933    1.0000 </r>
       <r>   -1.8797    1.0000 </r>
       <r>    0.7644    1.0000 </r>
       <r>    3.6809   -0.0000 </r>
       <r>    7.7959   -0.0000 </r>
       <r>    8.2137    0.0000 </r>
       <r>    8.4491    0.0000 </r>
       <r>    9.0560    0.0000 </r>
       <r>   10.2703    0.0000 </r>
       <r>   10.6804    0.0000 </r>
       <r>   12.1371    0.0000 </r>
       <r>   13.3572    0.0000 </r>
      </set>
      <set comment="kpoint 25">
       <r>   -1.2056    1.0000 </r>
       <r>   -0.4322    1.0000 </r>
       <r>    2.5464    0.9724 </r>
       <r>    3.9235   -0.0000 </r>
       <r>    5.0770   -0.0000 </r>
       <r>    6.1761   -0.0000 </r>
       <r>    6.1973   -0.0000 </r>
       <r>    7.4557   -0.0000 </r>
       <r>    7.9501   -0.0000 </r>
       <r>   10.6578    0.0000 </r>
       <r>   11.1806    0.0000 </r>
       <r>   12.7906    0.0000 </r>
      </set>
      <set comment="kpoint 26">
       <r>    0.9055    1.0000 </r>
       <r>    1.2229    1.0000 </r>
       <r>    1.7342    1.0000 </r>
       <r>    3.0411   -0.0170 </r>
       <r>    3.5065   -0.0000 </r>
       <r>    5.1484   -0.0000 </r>
       <r>    6.3209   -0.0000 </r>
       <r>    7.2595   -0.0000 </r>
       <r>    7.7565   -0.0000 </r>
       <r>    9.8509    0.0000 </r>
       <r>   10.0335    0.0000 </r>
       <r>   10.7875    0.0000 </r>
      </set>
      <set comment="kpoint 27">
       <r>   -1.4438    1.0000 </r>
       <r>    0.4252    1.0000 </r>
       <r>    1.2836    1.0000 </r>
       <r>    4.4562   -0.0000 </r>
       <r>    4.7722   -0.0000 </r>
       <r>    6.3585   -0.0000 </r>
       <r>    7.1819   -0.0000 </r>
       <r>    8.0027   -0.0000 </r>
       <r>    8.7332    0.0000 </r>
       <r>    8.9707    0.0000 </r>
       <r>   10.0631    0.0000 </r>
       <r>   10.4474    0.0000 </r>
      </set>
      <set comment="kpoint 28">
       <r>   -2.4160    1.0000 </r>
       <r>   -1.6308    1.0000 </r>
       <r>    1.4296    1.0000 </r>
       <r>    3.6815   -0.0000 </r>
       <r>    5.9946   -0.0000 </r>
       <r>    6.5775   -0.0000 </r>
       <r>    9.4360    0.0000 </r>
       <r>    9.6783    0.0000 </r>
       <r>   10.7113    0.0000 </r>
       <r>   10.8974    0.0000 </r>
       <r>   12.4993    0.0000 </r>
       <r>   12.7227    0.0000 </r>
      </set>
      <set comment="kpoint 29">
       <r>   -1.1263    1.0000 </r>
       <r>   -0.5735    1.0000 </r>
       <r>    2.8041    0.1035 </r>
       <r>    4.0315   -0.0000 </r>
       <r>    4.7926   -0.0000 </r>
       <r>    5.2355   -0.0000 </r>
       <r>    6.7864   -0.0000 </r>
       <r>    8.0159   -0.0000 </r>
       <r>    8.8202    0.0000 </r>
       <r>    9.3190    0.0000 </r>
       <r>   10.8882    0.0000 </r>
       <r>   11.6256    0.0000 </r>
      </set>
      <set comment="kpoint 30">
       <r>    0.9321    1.0000 </r>
       <r>    1.2503    1.0000 </r>
       <r>    3.1911   -0.0012 </r>
       <r>    3.2802   -0.0001 </r>
       <r>    4.3690   -0.0000 </r>
       <r>    5.0801   -0.0000 </r>
       <r>    5.4690   -0.0000 </r>
       <r>    5.9052   -0.0000 </r>
       <r>    6.7843   -0.0000 </r>
       <r>    7.0947   -0.0000 </r>
       <r>   10.5043    0.0000 </r>
       <r>   11.6378    0.0000 </r>
      </set>
      <set comment="kpoint 31">
       <r>    0.5650    1.0000 </r>
       <r>    2.1253    1.0002 </r>
       <r>    3.0383   -0.0176 </r>
       <r>    3.4580   -0.0000 </r>
       <r>    3.7811   -0.0000 </r>
       <r>    4.1322   -0.0000 </r>
       <r>    5.0441   -0.0000 </r>
       <r>    6.5688   -0.0000 </r>
       <r>    8.0499   -0.0000 </r>
       <r>    8.4395    0.0000 </r>
       <r>    9.2637    0.0000 </r>
       <r>   10.8721    0.0000 </r>
      </set>
      <set comment="kpoint 32">
       <r>   -0.2424    1.0000 </r>
       <r>    0.0837    1.0000 </r>
       <r>    2.1539    1.0005 </r>
       <r>    3.4476   -0.0000 </r>
       <r>    4.0001   -0.0000 </r>
       <r>    5.1027   -0.0000 </r>
       <r>    5.6493   -0.0000 </r>
       <r>    8.7971    0.0000 </r>
       <r>   10.0450    0.0000 </r>
       <r>   11.1551    0.0000 </r>
       <r>   11.6717    0.0000 </r>
       <r>   11.9972    0.0000 </r>
      </set>
      <set comment="kpoint 33">
       <r>    0.9814    1.0000 </r>
       <r>    1.4107    1.0000 </r>
       <r>    1.4736    1.0000 </r>
       <r>    2.5260    0.9996 </r>
       <r>    4.1639   -0.0000 </r>
       <r>    5.7000   -0.0000 </r>
       <r>    5.8497   -0.0000 </r>
       <r>    6.9944   -0.0000 </r>
       <r>    8.0723   -0.0000 </r>
       <r>    8.9189    0.0000 </r>
       <r>    9.4362    0.0000 </r>
       <r>   11.9030    0.0000 </r>
      </set>
      <set comment="kpoint 34">
       <r>   -0.6183    1.0000 </r>
       <r>    0.9942    1.0000 </r>
       <r>    2.1170    1.0002 </r>
       <r>    2.6907    0.5139 </r>
       <r>    2.9763   -0.0313 </r>
       <r>    6.8280   -0.0000 </r>
       <r>    7.1289   -0.0000 </r>
       <r>    7.4470   -0.0000 </r>
       <r>    9.5638    0.0000 </r>
       <r>   10.0992    0.0000 </r>
       <r>   11.3450    0.0000 </r>
       <r>   11.5674    0.0000 </r>
      </set>
      <set comment="kpoint 35">
       <r>   -4.1270    1.0000 </r>
       <r>   -3.1001    1.0000 </r>
       <r>   -0.4161    1.0000 </r>
       <r>    2.5553    0.9575 </r>
       <r>    7.6249   -0.0000 </r>
       <r>   12.1207    0.0000 </r>
       <r>   14.0951    0.0000 </r>
       <r>   14.0951    0.0000 </r>
       <r>   14.3877    0.0000 </r>
       <r>   14.3877    0.0000 </r>
       <r>   14.7512    0.0000 </r>
       <r>   14.7512    0.0000 </r>
      </set>
      <set comment="kpoint 36">
       <r>   -3.6433    1.0000 </r>
       <r>   -2.8476    1.0000 </r>
       <r>    0.2649    1.0000 </r>
       <r>    2.5773    0.9124 </r>
       <r>    8.4089    0.0000 </r>
       <r>    9.8619    0.0000 </r>
       <r>   11.6114    0.0000 </r>
       <r>   11.8238    0.0000 </r>
       <r>   12.1610    0.0000 </r>
       <r>   12.3065    0.0000 </r>
       <r>   12.9634    0.0000 </r>
       <r>   13.8668    0.0000 </r>
      </set>
      <set comment="kpoint 37">
       <r>   -2.3356    1.0000 </r>
       <r>   -1.7744    1.0000 </r>
       <r>    1.7179    1.0000 </r>
       <r>    3.3296   -0.0000 </r>
       <r>    5.7828   -0.0000 </r>
       <r>    7.5780   -0.0000 </r>
       <r>    8.0176   -0.0000 </r>
       <r>    9.9364    0.0000 </r>
       <r>   10.8762    0.0000 </r>
       <r>   11.7101    0.0000 </r>
       <r>   11.7357    0.0000 </r>
       <r>   12.3297    0.0000 </r>
      </set>
      <set comment="kpoint 38">
       <r>   -0.2429    1.0000 </r>
       <r>    0.0848    1.0000 </r>
       <r>    2.0592    1.0000 </r>
       <r>    3.8445   -0.0000 </r>
       <r>    4.1191   -0.0000 </r>
       <r>    4.7292   -0.0000 </r>
       <r>    5.3054   -0.0000 </r>
       <r>    9.6466    0.0000 </r>
       <r>   10.1406    0.0000 </r>
       <r>   11.0481    0.0000 </r>
       <r>   11.1922    0.0000 </r>
       <r>   11.5395    0.0000 </r>
      </set>
      <set comment="kpoint 39">
       <r>   -3.5618    1.0000 </r>
       <r>   -2.9931    1.0000 </r>
       <r>    0.5571    1.0000 </r>
       <r>    2.2294    1.0025 </r>
       <r>    8.8259    0.0000 </r>
       <r>   10.0838    0.0000 </r>
       <r>   10.8896    0.0000 </r>
       <r>   11.5079    0.0000 </r>
       <r>   12.0883    0.0000 </r>
       <r>   12.6495    0.0000 </r>
       <r>   13.8760    0.0000 </r>
       <r>   14.0270    0.0000 </r>
      </set>
      <set comment="kpoint 40">
       <r>   -2.6511    1.0000 </r>
       <r>   -2.3125    1.0000 </r>
       <r>    1.6235    1.0000 </r>
       <r>    2.6619    0.6337 </r>
       <r>    7.7968   -0.0000 </r>
       <r>    8.2364    0.0000 </r>
       <r>    8.8799    0.0000 </r>
       <r>    9.6215    0.0000 </r>
       <r>   10.3429    0.0000 </r>
       <r>   10.9867    0.0000 </r>
       <r>   11.4664    0.0000 </r>
       <r>   12.3000    0.0000 </r>
      </set>
      <set comment="kpoint 41">
       <r>   -0.9370    1.0000 </r>
       <r>   -0.8250    1.0000 </r>
       <r>    3.3548   -0.0000 </r>
       <r>    3.5435   -0.0000 </r>
       <r>    4.6003   -0.0000 </r>
       <r>    5.6730   -0.0000 </r>
       <r>    6.5843   -0.0000 </r>
       <r>    7.5569   -0.0000 </r>
       <r>    8.3403    0.0000 </r>
       <r>    9.9983    0.0000 </r>
       <r>   11.8100    0.0000 </r>
       <r>   12.5832    0.0000 </r>
      </set>
      <set comment="kpoint 42">
       <r>   -2.1434    1.0000 </r>
       <r>   -2.0299    1.0000 </r>
       <r>    2.2608    1.0045 </r>
       <r>    2.7485    0.2787 </r>
       <r>    5.8369   -0.0000 </r>
       <r>    7.0398   -0.0000 </r>
       <r>    8.6987    0.0000 </r>
       <r>   10.7527    0.0000 </r>
       <r>   10.8338    0.0000 </r>
       <r>   11.0781    0.0000 </r>
       <r>   11.9818    0.0000 </r>
       <r>   12.1884    0.0000 </r>
      </set>
      <set comment="kpoint 43">
       <r>   -3.8817    1.0000 </r>
       <r>   -3.5386    1.0000 </r>
       <r>    0.4632    1.0000 </r>
       <r>    1.5050    1.0000 </r>
       <r>    9.0762    0.0000 </r>
       <r>   10.5843    0.0000 </r>
       <r>   14.0703    0.0000 </r>
       <r>   14.0703    0.0000 </r>
       <r>   14.2960    0.0000 </r>
       <r>   14.2960    0.0000 </r>
       <r>   14.9246    0.0000 </r>
       <r>   14.9246    0.0000 </r>
      </set>
      <set comment="kpoint 44">
       <r>   -3.3671    1.0000 </r>
       <r>   -3.2520    1.0000 </r>
       <r>    1.1209    1.0000 </r>
       <r>    1.6089    1.0000 </r>
       <r>    9.6251    0.0000 </r>
       <r>    9.9623    0.0000 </r>
       <r>   10.5409    0.0000 </r>
       <r>   11.4761    0.0000 </r>
       <r>   12.1567    0.0000 </r>
       <r>   12.2776    0.0000 </r>
       <r>   13.3803    0.0000 </r>
       <r>   13.8263    0.0000 </r>
      </set>
     </set>
    </set>
   </array>
  </eigenvalues>
  <separator name="orbital magnetization" >
   <v name="MAGDIPOLOUT">      0.00000000      0.00000000      0.00000000</v>
  </separator>
  <dos>
   <i name="efermi">      2.69399267 </i>
   <total>
    <array>
     <dimension dim="1">gridpoints</dimension>
     <dimension dim="2">spin</dimension>
     <field>energy</field>
     <field>total</field>
     <field>integrated</field>
     <set>
      <set comment="spin 1">
       <r>    -6.3238     0.0000     0.0000 </r>
       <r>    -6.3122     0.0000     0.0000 </r>
       <r>    -6.3006     0.0000     0.0000 </r>
       <r>    -6.2889     0.0000     0.0000 </r>
       <r>    -6.2773     0.0000     0.0000 </r>
       <r>    -6.2657     0.0000     0.0000 </r>
       <r>    -6.2540     0.0000     0.0000 </r>
       <r>    -6.2424     0.0000     0.0000 </r>
       <r>    -6.2308     0.0000     0.0000 </r>
       <r>    -6.2192     0.0000     0.0000 </r>
       <r>    -6.2075     0.0000     0.0000 </r>
       <r>    -6.1959     0.0000     0.0000 </r>
       <r>    -6.1843     0.0000     0.0000 </r>
       <r>    -6.1726     0.0000     0.0000 </r>
       <r>    -6.1610     0.0000     0.0000 </r>
       <r>    -6.1494     0.0000     0.0000 </r>
       <r>    -6.1377     0.0000     0.0000 </r>
       <r>    -6.1261     0.0000     0.0000 </r>
       <r>    -6.1145     0.0000     0.0000 </r>
       <r>    -6.1029     0.0000     0.0000 </r>
       <r>    -6.0912     0.0000     0.0000 </r>
       <r>    -6.0796     0.0000     0.0000 </r>
       <r>    -6.0680     0.0000     0.0000 </r>
       <r>    -6.0563     0.0000     0.0000 </r>
       <r>    -6.0447     0.0000     0.0000 </r>
       <r>    -6.0331     0.0000     0.0000 </r>
       <r>    -6.0214     0.0000     0.0000 </r>
       <r>    -6.0098     0.0000     0.0000 </r>
       <r>    -5.9982     0.0000     0.0000 </r>
       <r>    -5.9866     0.0000     0.0000 </r>
       <r>    -5.9749     0.0000     0.0000 </r>
       <r>    -5.9633     0.0000     0.0000 </r>
       <r>    -5.9517     0.0000     0.0000 </r>
       <r>    -5.9400     0.0000     0.0000 </r>
       <r>    -5.9284    -0.0000    -0.0000 </r>
       <r>    -5.9168    -0.0000    -0.0000 </r>
       <r>    -5.9051    -0.0000    -0.0000 </r>
       <r>    -5.8935    -0.0000    -0.0000 </r>
       <r>    -5.8819    -0.0000    -0.0000 </r>
       <r>    -5.8703    -0.0000    -0.0000 </r>
       <r>    -5.8586    -0.0000    -0.0000 </r>
       <r>    -5.8470    -0.0000    -0.0000 </r>
       <r>    -5.8354    -0.0000    -0.0000 </r>
       <r>    -5.8237    -0.0000    -0.0000 </r>
       <r>    -5.8121    -0.0000    -0.0000 </r>
       <r>    -5.8005    -0.0000    -0.0000 </r>
       <r>    -5.7888    -0.0000    -0.0000 </r>
       <r>    -5.7772    -0.0000    -0.0000 </r>
       <r>    -5.7656    -0.0000    -0.0000 </r>
       <r>    -5.7540    -0.0000    -0.0000 </r>
       <r>    -5.7423    -0.0000    -0.0000 </r>
       <r>    -5.7307    -0.0000    -0.0000 </r>
       <r>    -5.7191    -0.0000    -0.0000 </r>
       <r>    -5.7074    -0.0000    -0.0000 </r>
       <r>    -5.6958    -0.0000    -0.0000 </r>
       <r>    -5.6842    -0.0000    -0.0000 </r>
       <r>    -5.6725    -0.0000    -0.0000 </r>
       <r>    -5.6609    -0.0000    -0.0000 </r>
       <r>    -5.6493    -0.0000    -0.0000 </r>
       <r>    -5.6377    -0.0000    -0.0000 </r>
       <r>    -5.6260    -0.0000    -0.0000 </r>
       <r>    -5.6144    -0.0000    -0.0000 </r>
       <r>    -5.6028    -0.0000    -0.0000 </r>
       <r>    -5.5911    -0.0000    -0.0000 </r>
       <r>    -5.5795    -0.0000    -0.0000 </r>
       <r>    -5.5679    -0.0000    -0.0000 </r>
       <r>    -5.5562    -0.0000    -0.0000 </r>
       <r>    -5.5446    -0.0000    -0.0000 </r>
       <r>    -5.5330    -0.0000    -0.0000 </r>
       <r>    -5.5214    -0.0000    -0.0000 </r>
       <r>    -5.5097    -0.0000    -0.0000 </r>
       <r>    -5.4981    -0.0000    -0.0000 </r>
       <r>    -5.4865    -0.0000    -0.0000 </r>
       <r>    -5.4748    -0.0000    -0.0000 </r>
       <r>    -5.4632    -0.0000    -0.0000 </r>
       <r>    -5.4516    -0.0000    -0.0000 </r>
       <r>    -5.4399    -0.0000    -0.0000 </r>
       <r>    -5.4283    -0.0000    -0.0000 </r>
       <r>    -5.4167    -0.0000    -0.0000 </r>
       <r>    -5.4051    -0.0000    -0.0000 </r>
       <r>    -5.3934    -0.0000    -0.0000 </r>
       <r>    -5.3818    -0.0000    -0.0000 </r>
       <r>    -5.3702    -0.0000    -0.0000 </r>
       <r>    -5.3585    -0.0000    -0.0000 </r>
       <r>    -5.3469    -0.0000    -0.0000 </r>
       <r>    -5.3353    -0.0000    -0.0000 </r>
       <r>    -5.3236    -0.0000    -0.0000 </r>
       <r>    -5.3120    -0.0000    -0.0000 </r>
       <r>    -5.3004    -0.0000    -0.0000 </r>
       <r>    -5.2888    -0.0000    -0.0000 </r>
       <r>    -5.2771    -0.0000    -0.0000 </r>
       <r>    -5.2655    -0.0000    -0.0000 </r>
       <r>    -5.2539    -0.0000    -0.0000 </r>
       <r>    -5.2422    -0.0000    -0.0000 </r>
       <r>    -5.2306    -0.0000    -0.0000 </r>
       <r>    -5.2190    -0.0000    -0.0000 </r>
       <r>    -5.2073    -0.0000    -0.0000 </r>
       <r>    -5.1957    -0.0000    -0.0000 </r>
       <r>    -5.1841    -0.0000    -0.0000 </r>
       <r>    -5.1725    -0.0000    -0.0000 </r>
       <r>    -5.1608    -0.0000    -0.0000 </r>
       <r>    -5.1492    -0.0000    -0.0000 </r>
       <r>    -5.1376    -0.0000    -0.0000 </r>
       <r>    -5.1259    -0.0000    -0.0000 </r>
       <r>    -5.1143    -0.0000    -0.0000 </r>
       <r>    -5.1027    -0.0000    -0.0000 </r>
       <r>    -5.0910    -0.0000    -0.0000 </r>
       <r>    -5.0794    -0.0000    -0.0000 </r>
       <r>    -5.0678    -0.0000    -0.0000 </r>
       <r>    -5.0562    -0.0000    -0.0000 </r>
       <r>    -5.0445    -0.0000    -0.0000 </r>
       <r>    -5.0329    -0.0000    -0.0000 </r>
       <r>    -5.0213    -0.0000    -0.0000 </r>
       <r>    -5.0096    -0.0000    -0.0000 </r>
       <r>    -4.9980    -0.0000    -0.0000 </r>
       <r>    -4.9864    -0.0000    -0.0000 </r>
       <r>    -4.9747    -0.0000    -0.0000 </r>
       <r>    -4.9631    -0.0000    -0.0000 </r>
       <r>    -4.9515    -0.0000    -0.0000 </r>
       <r>    -4.9398    -0.0000    -0.0000 </r>
       <r>    -4.9282    -0.0000    -0.0000 </r>
       <r>    -4.9166    -0.0000    -0.0000 </r>
       <r>    -4.9050    -0.0000    -0.0000 </r>
       <r>    -4.8933    -0.0000    -0.0000 </r>
       <r>    -4.8817    -0.0001    -0.0000 </r>
       <r>    -4.8701    -0.0001    -0.0000 </r>
       <r>    -4.8584    -0.0001    -0.0000 </r>
       <r>    -4.8468    -0.0001    -0.0000 </r>
       <r>    -4.8352    -0.0002    -0.0000 </r>
       <r>    -4.8235    -0.0002    -0.0000 </r>
       <r>    -4.8119    -0.0003    -0.0000 </r>
       <r>    -4.8003    -0.0004    -0.0000 </r>
       <r>    -4.7887    -0.0005    -0.0000 </r>
       <r>    -4.7770    -0.0006    -0.0000 </r>
       <r>    -4.7654    -0.0007    -0.0000 </r>
       <r>    -4.7538    -0.0009    -0.0000 </r>
       <r>    -4.7421    -0.0011    -0.0001 </r>
       <r>    -4.7305    -0.0013    -0.0001 </r>
       <r>    -4.7189    -0.0015    -0.0001 </r>
       <r>    -4.7072    -0.0018    -0.0001 </r>
       <r>    -4.6956    -0.0021    -0.0001 </r>
       <r>    -4.6840    -0.0024    -0.0002 </r>
       <r>    -4.6724    -0.0027    -0.0002 </r>
       <r>    -4.6607    -0.0030    -0.0002 </r>
       <r>    -4.6491    -0.0034    -0.0003 </r>
       <r>    -4.6375    -0.0037    -0.0003 </r>
       <r>    -4.6258    -0.0039    -0.0004 </r>
       <r>    -4.6142    -0.0041    -0.0004 </r>
       <r>    -4.6026    -0.0042    -0.0005 </r>
       <r>    -4.5909    -0.0042    -0.0005 </r>
       <r>    -4.5793    -0.0040    -0.0006 </r>
       <r>    -4.5677    -0.0036    -0.0006 </r>
       <r>    -4.5561    -0.0030    -0.0006 </r>
       <r>    -4.5444    -0.0021    -0.0007 </r>
       <r>    -4.5328    -0.0010    -0.0007 </r>
       <r>    -4.5212     0.0005    -0.0007 </r>
       <r>    -4.5095     0.0024    -0.0006 </r>
       <r>    -4.4979     0.0046    -0.0006 </r>
       <r>    -4.4863     0.0072    -0.0005 </r>
       <r>    -4.4746     0.0103    -0.0004 </r>
       <r>    -4.4630     0.0137    -0.0002 </r>
       <r>    -4.4514     0.0174    -0.0000 </r>
       <r>    -4.4398     0.0215     0.0002 </r>
       <r>    -4.4281     0.0259     0.0005 </r>
       <r>    -4.4165     0.0306     0.0009 </r>
       <r>    -4.4049     0.0354     0.0013 </r>
       <r>    -4.3932     0.0403     0.0018 </r>
       <r>    -4.3816     0.0452     0.0023 </r>
       <r>    -4.3700     0.0499     0.0029 </r>
       <r>    -4.3583     0.0545     0.0035 </r>
       <r>    -4.3467     0.0588     0.0042 </r>
       <r>    -4.3351     0.0627     0.0049 </r>
       <r>    -4.3235     0.0661     0.0057 </r>
       <r>    -4.3118     0.0689     0.0065 </r>
       <r>    -4.3002     0.0711     0.0073 </r>
       <r>    -4.2886     0.0727     0.0082 </r>
       <r>    -4.2769     0.0735     0.0090 </r>
       <r>    -4.2653     0.0736     0.0099 </r>
       <r>    -4.2537     0.0731     0.0107 </r>
       <r>    -4.2420     0.0719     0.0116 </r>
       <r>    -4.2304     0.0702     0.0124 </r>
       <r>    -4.2188     0.0681     0.0132 </r>
       <r>    -4.2072     0.0658     0.0139 </r>
       <r>    -4.1955     0.0634     0.0147 </r>
       <r>    -4.1839     0.0612     0.0154 </r>
       <r>    -4.1723     0.0594     0.0161 </r>
       <r>    -4.1606     0.0583     0.0168 </r>
       <r>    -4.1490     0.0582     0.0174 </r>
       <r>    -4.1374     0.0594     0.0181 </r>
       <r>    -4.1257     0.0621     0.0189 </r>
       <r>    -4.1141     0.0667     0.0196 </r>
       <r>    -4.1025     0.0734     0.0205 </r>
       <r>    -4.0909     0.0826     0.0214 </r>
       <r>    -4.0792     0.0943     0.0225 </r>
       <r>    -4.0676     0.1088     0.0238 </r>
       <r>    -4.0560     0.1260     0.0253 </r>
       <r>    -4.0443     0.1461     0.0270 </r>
       <r>    -4.0327     0.1689     0.0289 </r>
       <r>    -4.0211     0.1942     0.0312 </r>
       <r>    -4.0094     0.2219     0.0338 </r>
       <r>    -3.9978     0.2515     0.0367 </r>
       <r>    -3.9862     0.2826     0.0400 </r>
       <r>    -3.9746     0.3148     0.0436 </r>
       <r>    -3.9629     0.3474     0.0477 </r>
       <r>    -3.9513     0.3799     0.0521 </r>
       <r>    -3.9397     0.4117     0.0569 </r>
       <r>    -3.9280     0.4421     0.0620 </r>
       <r>    -3.9164     0.4706     0.0675 </r>
       <r>    -3.9048     0.4965     0.0733 </r>
       <r>    -3.8931     0.5195     0.0793 </r>
       <r>    -3.8815     0.5391     0.0856 </r>
       <r>    -3.8699     0.5551     0.0920 </r>
       <r>    -3.8583     0.5671     0.0986 </r>
       <r>    -3.8466     0.5752     0.1053 </r>
       <r>    -3.8350     0.5793     0.1121 </r>
       <r>    -3.8234     0.5797     0.1188 </r>
       <r>    -3.8117     0.5765     0.1255 </r>
       <r>    -3.8001     0.5700     0.1321 </r>
       <r>    -3.7885     0.5608     0.1387 </r>
       <r>    -3.7768     0.5492     0.1451 </r>
       <r>    -3.7652     0.5358     0.1513 </r>
       <r>    -3.7536     0.5209     0.1573 </r>
       <r>    -3.7420     0.5051     0.1632 </r>
       <r>    -3.7303     0.4889     0.1689 </r>
       <r>    -3.7187     0.4725     0.1744 </r>
       <r>    -3.7071     0.4565     0.1797 </r>
       <r>    -3.6954     0.4409     0.1848 </r>
       <r>    -3.6838     0.4261     0.1898 </r>
       <r>    -3.6722     0.4120     0.1946 </r>
       <r>    -3.6605     0.3989     0.1992 </r>
       <r>    -3.6489     0.3866     0.2037 </r>
       <r>    -3.6373     0.3751     0.2081 </r>
       <r>    -3.6257     0.3643     0.2123 </r>
       <r>    -3.6140     0.3540     0.2164 </r>
       <r>    -3.6024     0.3443     0.2204 </r>
       <r>    -3.5908     0.3348     0.2243 </r>
       <r>    -3.5791     0.3256     0.2281 </r>
       <r>    -3.5675     0.3165     0.2318 </r>
       <r>    -3.5559     0.3075     0.2354 </r>
       <r>    -3.5442     0.2986     0.2389 </r>
       <r>    -3.5326     0.2897     0.2422 </r>
       <r>    -3.5210     0.2810     0.2455 </r>
       <r>    -3.5094     0.2725     0.2487 </r>
       <r>    -3.4977     0.2644     0.2517 </r>
       <r>    -3.4861     0.2566     0.2547 </r>
       <r>    -3.4745     0.2493     0.2576 </r>
       <r>    -3.4628     0.2426     0.2604 </r>
       <r>    -3.4512     0.2366     0.2632 </r>
       <r>    -3.4396     0.2313     0.2659 </r>
       <r>    -3.4279     0.2269     0.2685 </r>
       <r>    -3.4163     0.2232     0.2711 </r>
       <r>    -3.4047     0.2205     0.2737 </r>
       <r>    -3.3931     0.2185     0.2762 </r>
       <r>    -3.3814     0.2174     0.2787 </r>
       <r>    -3.3698     0.2170     0.2813 </r>
       <r>    -3.3582     0.2175     0.2838 </r>
       <r>    -3.3465     0.2188     0.2863 </r>
       <r>    -3.3349     0.2209     0.2889 </r>
       <r>    -3.3233     0.2239     0.2915 </r>
       <r>    -3.3116     0.2278     0.2942 </r>
       <r>    -3.3000     0.2329     0.2969 </r>
       <r>    -3.2884     0.2391     0.2997 </r>
       <r>    -3.2768     0.2468     0.3025 </r>
       <r>    -3.2651     0.2560     0.3055 </r>
       <r>    -3.2535     0.2669     0.3086 </r>
       <r>    -3.2419     0.2797     0.3119 </r>
       <r>    -3.2302     0.2946     0.3153 </r>
       <r>    -3.2186     0.3117     0.3189 </r>
       <r>    -3.2070     0.3309     0.3228 </r>
       <r>    -3.1953     0.3523     0.3269 </r>
       <r>    -3.1837     0.3759     0.3312 </r>
       <r>    -3.1721     0.4014     0.3359 </r>
       <r>    -3.1605     0.4287     0.3409 </r>
       <r>    -3.1488     0.4574     0.3462 </r>
       <r>    -3.1372     0.4872     0.3519 </r>
       <r>    -3.1256     0.5175     0.3579 </r>
       <r>    -3.1139     0.5480     0.3643 </r>
       <r>    -3.1023     0.5781     0.3710 </r>
       <r>    -3.0907     0.6071     0.3780 </r>
       <r>    -3.0790     0.6347     0.3854 </r>
       <r>    -3.0674     0.6602     0.3931 </r>
       <r>    -3.0558     0.6832     0.4011 </r>
       <r>    -3.0442     0.7031     0.4092 </r>
       <r>    -3.0325     0.7197     0.4176 </r>
       <r>    -3.0209     0.7327     0.4261 </r>
       <r>    -3.0093     0.7419     0.4347 </r>
       <r>    -2.9976     0.7471     0.4434 </r>
       <r>    -2.9860     0.7484     0.4521 </r>
       <r>    -2.9744     0.7459     0.4608 </r>
       <r>    -2.9627     0.7398     0.4694 </r>
       <r>    -2.9511     0.7305     0.4779 </r>
       <r>    -2.9395     0.7184     0.4863 </r>
       <r>    -2.9279     0.7040     0.4945 </r>
       <r>    -2.9162     0.6879     0.5025 </r>
       <r>    -2.9046     0.6708     0.5103 </r>
       <r>    -2.8930     0.6533     0.5179 </r>
       <r>    -2.8813     0.6363     0.5253 </r>
       <r>    -2.8697     0.6203     0.5325 </r>
       <r>    -2.8581     0.6062     0.5395 </r>
       <r>    -2.8464     0.5945     0.5464 </r>
       <r>    -2.8348     0.5860     0.5532 </r>
       <r>    -2.8232     0.5811     0.5600 </r>
       <r>    -2.8116     0.5802     0.5668 </r>
       <r>    -2.7999     0.5837     0.5735 </r>
       <r>    -2.7883     0.5915     0.5804 </r>
       <r>    -2.7767     0.6038     0.5874 </r>
       <r>    -2.7650     0.6203     0.5947 </r>
       <r>    -2.7534     0.6407     0.6021 </r>
       <r>    -2.7418     0.6644     0.6098 </r>
       <r>    -2.7301     0.6908     0.6179 </r>
       <r>    -2.7185     0.7191     0.6262 </r>
       <r>    -2.7069     0.7486     0.6349 </r>
       <r>    -2.6953     0.7784     0.6440 </r>
       <r>    -2.6836     0.8074     0.6534 </r>
       <r>    -2.6720     0.8349     0.6631 </r>
       <r>    -2.6604     0.8600     0.6731 </r>
       <r>    -2.6487     0.8820     0.6834 </r>
       <r>    -2.6371     0.9003     0.6938 </r>
       <r>    -2.6255     0.9144     0.7045 </r>
       <r>    -2.6138     0.9242     0.7152 </r>
       <r>    -2.6022     0.9295     0.7260 </r>
       <r>    -2.5906     0.9304     0.7368 </r>
       <r>    -2.5790     0.9273     0.7476 </r>
       <r>    -2.5673     0.9204     0.7583 </r>
       <r>    -2.5557     0.9104     0.7689 </r>
       <r>    -2.5441     0.8979     0.7794 </r>
       <r>    -2.5324     0.8836     0.7896 </r>
       <r>    -2.5208     0.8682     0.7997 </r>
       <r>    -2.5092     0.8525     0.8096 </r>
       <r>    -2.4975     0.8369     0.8194 </r>
       <r>    -2.4859     0.8222     0.8289 </r>
       <r>    -2.4743     0.8087     0.8383 </r>
       <r>    -2.4627     0.7966     0.8476 </r>
       <r>    -2.4510     0.7861     0.8568 </r>
       <r>    -2.4394     0.7773     0.8658 </r>
       <r>    -2.4278     0.7698     0.8747 </r>
       <r>    -2.4161     0.7634     0.8836 </r>
       <r>    -2.4045     0.7576     0.8924 </r>
       <r>    -2.3929     0.7521     0.9012 </r>
       <r>    -2.3812     0.7462     0.9099 </r>
       <r>    -2.3696     0.7394     0.9185 </r>
       <r>    -2.3580     0.7312     0.9270 </r>
       <r>    -2.3464     0.7211     0.9353 </r>
       <r>    -2.3347     0.7087     0.9436 </r>
       <r>    -2.3231     0.6938     0.9517 </r>
       <r>    -2.3115     0.6763     0.9595 </r>
       <r>    -2.2998     0.6561     0.9672 </r>
       <r>    -2.2882     0.6335     0.9745 </r>
       <r>    -2.2766     0.6086     0.9816 </r>
       <r>    -2.2649     0.5820     0.9884 </r>
       <r>    -2.2533     0.5540     0.9948 </r>
       <r>    -2.2417     0.5254     1.0009 </r>
       <r>    -2.2301     0.4968     1.0067 </r>
       <r>    -2.2184     0.4687     1.0122 </r>
       <r>    -2.2068     0.4420     1.0173 </r>
       <r>    -2.1952     0.4172     1.0221 </r>
       <r>    -2.1835     0.3949     1.0267 </r>
       <r>    -2.1719     0.3756     1.0311 </r>
       <r>    -2.1603     0.3597     1.0353 </r>
       <r>    -2.1486     0.3477     1.0393 </r>
       <r>    -2.1370     0.3395     1.0433 </r>
       <r>    -2.1254     0.3355     1.0472 </r>
       <r>    -2.1137     0.3355     1.0511 </r>
       <r>    -2.1021     0.3394     1.0550 </r>
       <r>    -2.0905     0.3470     1.0591 </r>
       <r>    -2.0789     0.3581     1.0632 </r>
       <r>    -2.0672     0.3722     1.0676 </r>
       <r>    -2.0556     0.3890     1.0721 </r>
       <r>    -2.0440     0.4079     1.0768 </r>
       <r>    -2.0323     0.4285     1.0818 </r>
       <r>    -2.0207     0.4503     1.0870 </r>
       <r>    -2.0091     0.4727     1.0925 </r>
       <r>    -1.9974     0.4953     1.0983 </r>
       <r>    -1.9858     0.5175     1.1043 </r>
       <r>    -1.9742     0.5388     1.1106 </r>
       <r>    -1.9626     0.5589     1.1171 </r>
       <r>    -1.9509     0.5773     1.1238 </r>
       <r>    -1.9393     0.5937     1.1307 </r>
       <r>    -1.9277     0.6077     1.1378 </r>
       <r>    -1.9160     0.6190     1.1450 </r>
       <r>    -1.9044     0.6275     1.1523 </r>
       <r>    -1.8928     0.6330     1.1596 </r>
       <r>    -1.8811     0.6353     1.1670 </r>
       <r>    -1.8695     0.6344     1.1744 </r>
       <r>    -1.8579     0.6303     1.1817 </r>
       <r>    -1.8463     0.6230     1.1890 </r>
       <r>    -1.8346     0.6126     1.1961 </r>
       <r>    -1.8230     0.5992     1.2031 </r>
       <r>    -1.8114     0.5832     1.2099 </r>
       <r>    -1.7997     0.5646     1.2164 </r>
       <r>    -1.7881     0.5439     1.2227 </r>
       <r>    -1.7765     0.5214     1.2288 </r>
       <r>    -1.7648     0.4975     1.2346 </r>
       <r>    -1.7532     0.4728     1.2401 </r>
       <r>    -1.7416     0.4478     1.2453 </r>
       <r>    -1.7300     0.4230     1.2502 </r>
       <r>    -1.7183     0.3992     1.2549 </r>
       <r>    -1.7067     0.3771     1.2592 </r>
       <r>    -1.6951     0.3573     1.2634 </r>
       <r>    -1.6834     0.3406     1.2674 </r>
       <r>    -1.6718     0.3278     1.2712 </r>
       <r>    -1.6602     0.3197     1.2749 </r>
       <r>    -1.6485     0.3169     1.2786 </r>
       <r>    -1.6369     0.3202     1.2823 </r>
       <r>    -1.6253     0.3302     1.2861 </r>
       <r>    -1.6137     0.3473     1.2902 </r>
       <r>    -1.6020     0.3720     1.2945 </r>
       <r>    -1.5904     0.4045     1.2992 </r>
       <r>    -1.5788     0.4449     1.3044 </r>
       <r>    -1.5671     0.4930     1.3101 </r>
       <r>    -1.5555     0.5487     1.3165 </r>
       <r>    -1.5439     0.6113     1.3236 </r>
       <r>    -1.5322     0.6802     1.3315 </r>
       <r>    -1.5206     0.7546     1.3403 </r>
       <r>    -1.5090     0.8333     1.3500 </r>
       <r>    -1.4974     0.9152     1.3606 </r>
       <r>    -1.4857     0.9988     1.3723 </r>
       <r>    -1.4741     1.0829     1.3848 </r>
       <r>    -1.4625     1.1659     1.3984 </r>
       <r>    -1.4508     1.2463     1.4129 </r>
       <r>    -1.4392     1.3226     1.4283 </r>
       <r>    -1.4276     1.3937     1.4445 </r>
       <r>    -1.4159     1.4581     1.4614 </r>
       <r>    -1.4043     1.5148     1.4791 </r>
       <r>    -1.3927     1.5630     1.4972 </r>
       <r>    -1.3811     1.6021     1.5159 </r>
       <r>    -1.3694     1.6315     1.5349 </r>
       <r>    -1.3578     1.6512     1.5541 </r>
       <r>    -1.3462     1.6612     1.5734 </r>
       <r>    -1.3345     1.6618     1.5927 </r>
       <r>    -1.3229     1.6534     1.6119 </r>
       <r>    -1.3113     1.6368     1.6310 </r>
       <r>    -1.2996     1.6128     1.6497 </r>
       <r>    -1.2880     1.5821     1.6681 </r>
       <r>    -1.2764     1.5459     1.6861 </r>
       <r>    -1.2648     1.5050     1.7036 </r>
       <r>    -1.2531     1.4604     1.7206 </r>
       <r>    -1.2415     1.4130     1.7370 </r>
       <r>    -1.2299     1.3637     1.7529 </r>
       <r>    -1.2182     1.3132     1.7682 </r>
       <r>    -1.2066     1.2621     1.7828 </r>
       <r>    -1.1950     1.2110     1.7969 </r>
       <r>    -1.1833     1.1602     1.8104 </r>
       <r>    -1.1717     1.1102     1.8233 </r>
       <r>    -1.1601     1.0612     1.8357 </r>
       <r>    -1.1485     1.0134     1.8475 </r>
       <r>    -1.1368     0.9670     1.8587 </r>
       <r>    -1.1252     0.9220     1.8694 </r>
       <r>    -1.1136     0.8787     1.8796 </r>
       <r>    -1.1019     0.8372     1.8894 </r>
       <r>    -1.0903     0.7976     1.8987 </r>
       <r>    -1.0787     0.7601     1.9075 </r>
       <r>    -1.0670     0.7250     1.9159 </r>
       <r>    -1.0554     0.6925     1.9240 </r>
       <r>    -1.0438     0.6629     1.9317 </r>
       <r>    -1.0322     0.6364     1.9391 </r>
       <r>    -1.0205     0.6132     1.9462 </r>
       <r>    -1.0089     0.5937     1.9531 </r>
       <r>    -0.9973     0.5780     1.9599 </r>
       <r>    -0.9856     0.5663     1.9664 </r>
       <r>    -0.9740     0.5587     1.9729 </r>
       <r>    -0.9624     0.5552     1.9794 </r>
       <r>    -0.9507     0.5559     1.9859 </r>
       <r>    -0.9391     0.5607     1.9924 </r>
       <r>    -0.9275     0.5694     1.9990 </r>
       <r>    -0.9159     0.5819     2.0058 </r>
       <r>    -0.9042     0.5978     2.0127 </r>
       <r>    -0.8926     0.6170     2.0199 </r>
       <r>    -0.8810     0.6391     2.0273 </r>
       <r>    -0.8693     0.6639     2.0350 </r>
       <r>    -0.8577     0.6909     2.0431 </r>
       <r>    -0.8461     0.7199     2.0515 </r>
       <r>    -0.8344     0.7506     2.0602 </r>
       <r>    -0.8228     0.7827     2.0693 </r>
       <r>    -0.8112     0.8159     2.0788 </r>
       <r>    -0.7996     0.8500     2.0887 </r>
       <r>    -0.7879     0.8847     2.0990 </r>
       <r>    -0.7763     0.9200     2.1097 </r>
       <r>    -0.7647     0.9556     2.1208 </r>
       <r>    -0.7530     0.9914     2.1323 </r>
       <r>    -0.7414     1.0271     2.1442 </r>
       <r>    -0.7298     1.0626     2.1566 </r>
       <r>    -0.7181     1.0977     2.1694 </r>
       <r>    -0.7065     1.1321     2.1825 </r>
       <r>    -0.6949     1.1656     2.1961 </r>
       <r>    -0.6833     1.1979     2.2100 </r>
       <r>    -0.6716     1.2285     2.2243 </r>
       <r>    -0.6600     1.2572     2.2389 </r>
       <r>    -0.6484     1.2835     2.2539 </r>
       <r>    -0.6367     1.3069     2.2691 </r>
       <r>    -0.6251     1.3271     2.2845 </r>
       <r>    -0.6135     1.3435     2.3001 </r>
       <r>    -0.6018     1.3558     2.3159 </r>
       <r>    -0.5902     1.3636     2.3317 </r>
       <r>    -0.5786     1.3665     2.3476 </r>
       <r>    -0.5670     1.3643     2.3635 </r>
       <r>    -0.5553     1.3568     2.3793 </r>
       <r>    -0.5437     1.3439     2.3949 </r>
       <r>    -0.5321     1.3258     2.4103 </r>
       <r>    -0.5204     1.3024     2.4255 </r>
       <r>    -0.5088     1.2742     2.4403 </r>
       <r>    -0.4972     1.2415     2.4547 </r>
       <r>    -0.4855     1.2048     2.4687 </r>
       <r>    -0.4739     1.1646     2.4823 </r>
       <r>    -0.4623     1.1217     2.4953 </r>
       <r>    -0.4507     1.0768     2.5079 </r>
       <r>    -0.4390     1.0306     2.5198 </r>
       <r>    -0.4274     0.9840     2.5313 </r>
       <r>    -0.4158     0.9377     2.5422 </r>
       <r>    -0.4041     0.8926     2.5526 </r>
       <r>    -0.3925     0.8494     2.5625 </r>
       <r>    -0.3809     0.8087     2.5719 </r>
       <r>    -0.3692     0.7712     2.5808 </r>
       <r>    -0.3576     0.7374     2.5894 </r>
       <r>    -0.3460     0.7077     2.5976 </r>
       <r>    -0.3344     0.6823     2.6056 </r>
       <r>    -0.3227     0.6616     2.6133 </r>
       <r>    -0.3111     0.6456     2.6208 </r>
       <r>    -0.2995     0.6343     2.6281 </r>
       <r>    -0.2878     0.6276     2.6354 </r>
       <r>    -0.2762     0.6254     2.6427 </r>
       <r>    -0.2646     0.6275     2.6500 </r>
       <r>    -0.2529     0.6335     2.6574 </r>
       <r>    -0.2413     0.6432     2.6649 </r>
       <r>    -0.2297     0.6562     2.6725 </r>
       <r>    -0.2181     0.6722     2.6803 </r>
       <r>    -0.2064     0.6907     2.6883 </r>
       <r>    -0.1948     0.7115     2.6966 </r>
       <r>    -0.1832     0.7341     2.7052 </r>
       <r>    -0.1715     0.7583     2.7140 </r>
       <r>    -0.1599     0.7836     2.7231 </r>
       <r>    -0.1483     0.8097     2.7325 </r>
       <r>    -0.1366     0.8362     2.7422 </r>
       <r>    -0.1250     0.8630     2.7523 </r>
       <r>    -0.1134     0.8895     2.7626 </r>
       <r>    -0.1018     0.9154     2.7733 </r>
       <r>    -0.0901     0.9404     2.7842 </r>
       <r>    -0.0785     0.9641     2.7954 </r>
       <r>    -0.0669     0.9860     2.8069 </r>
       <r>    -0.0552     1.0058     2.8186 </r>
       <r>    -0.0436     1.0230     2.8305 </r>
       <r>    -0.0320     1.0371     2.8425 </r>
       <r>    -0.0203     1.0477     2.8547 </r>
       <r>    -0.0087     1.0544     2.8670 </r>
       <r>     0.0029     1.0568     2.8793 </r>
       <r>     0.0145     1.0546     2.8915 </r>
       <r>     0.0262     1.0474     2.9037 </r>
       <r>     0.0378     1.0350     2.9158 </r>
       <r>     0.0494     1.0174     2.9276 </r>
       <r>     0.0611     0.9945     2.9392 </r>
       <r>     0.0727     0.9664     2.9504 </r>
       <r>     0.0843     0.9335     2.9613 </r>
       <r>     0.0960     0.8959     2.9717 </r>
       <r>     0.1076     0.8543     2.9816 </r>
       <r>     0.1192     0.8092     2.9910 </r>
       <r>     0.1308     0.7614     2.9999 </r>
       <r>     0.1425     0.7117     3.0081 </r>
       <r>     0.1541     0.6609     3.0158 </r>
       <r>     0.1657     0.6100     3.0229 </r>
       <r>     0.1774     0.5601     3.0294 </r>
       <r>     0.1890     0.5120     3.0354 </r>
       <r>     0.2006     0.4668     3.0408 </r>
       <r>     0.2123     0.4255     3.0458 </r>
       <r>     0.2239     0.3889     3.0503 </r>
       <r>     0.2355     0.3579     3.0545 </r>
       <r>     0.2471     0.3332     3.0583 </r>
       <r>     0.2588     0.3154     3.0620 </r>
       <r>     0.2704     0.3052     3.0656 </r>
       <r>     0.2820     0.3027     3.0691 </r>
       <r>     0.2937     0.3084     3.0727 </r>
       <r>     0.3053     0.3222     3.0764 </r>
       <r>     0.3169     0.3442     3.0804 </r>
       <r>     0.3286     0.3743     3.0848 </r>
       <r>     0.3402     0.4120     3.0896 </r>
       <r>     0.3518     0.4569     3.0949 </r>
       <r>     0.3634     0.5084     3.1008 </r>
       <r>     0.3751     0.5657     3.1074 </r>
       <r>     0.3867     0.6281     3.1147 </r>
       <r>     0.3983     0.6945     3.1227 </r>
       <r>     0.4100     0.7639     3.1316 </r>
       <r>     0.4216     0.8352     3.1413 </r>
       <r>     0.4332     0.9072     3.1519 </r>
       <r>     0.4449     0.9788     3.1633 </r>
       <r>     0.4565     1.0486     3.1755 </r>
       <r>     0.4681     1.1157     3.1884 </r>
       <r>     0.4797     1.1788     3.2022 </r>
       <r>     0.4914     1.2368     3.2165 </r>
       <r>     0.5030     1.2890     3.2315 </r>
       <r>     0.5146     1.3344     3.2470 </r>
       <r>     0.5263     1.3723     3.2630 </r>
       <r>     0.5379     1.4024     3.2793 </r>
       <r>     0.5495     1.4243     3.2959 </r>
       <r>     0.5612     1.4379     3.3126 </r>
       <r>     0.5728     1.4432     3.3294 </r>
       <r>     0.5844     1.4407     3.3461 </r>
       <r>     0.5961     1.4306     3.3628 </r>
       <r>     0.6077     1.4139     3.3792 </r>
       <r>     0.6193     1.3912     3.3954 </r>
       <r>     0.6309     1.3636     3.4113 </r>
       <r>     0.6426     1.3324     3.4268 </r>
       <r>     0.6542     1.2987     3.4419 </r>
       <r>     0.6658     1.2639     3.4566 </r>
       <r>     0.6775     1.2293     3.4709 </r>
       <r>     0.6891     1.1965     3.4848 </r>
       <r>     0.7007     1.1668     3.4983 </r>
       <r>     0.7124     1.1415     3.5116 </r>
       <r>     0.7240     1.1217     3.5247 </r>
       <r>     0.7356     1.1087     3.5376 </r>
       <r>     0.7472     1.1032     3.5504 </r>
       <r>     0.7589     1.1060     3.5633 </r>
       <r>     0.7705     1.1175     3.5763 </r>
       <r>     0.7821     1.1380     3.5895 </r>
       <r>     0.7938     1.1672     3.6031 </r>
       <r>     0.8054     1.2050     3.6171 </r>
       <r>     0.8170     1.2507     3.6316 </r>
       <r>     0.8287     1.3033     3.6468 </r>
       <r>     0.8403     1.3619     3.6626 </r>
       <r>     0.8519     1.4250     3.6792 </r>
       <r>     0.8635     1.4912     3.6965 </r>
       <r>     0.8752     1.5590     3.7147 </r>
       <r>     0.8868     1.6265     3.7336 </r>
       <r>     0.8984     1.6923     3.7533 </r>
       <r>     0.9101     1.7546     3.7737 </r>
       <r>     0.9217     1.8120     3.7947 </r>
       <r>     0.9333     1.8630     3.8164 </r>
       <r>     0.9450     1.9066     3.8386 </r>
       <r>     0.9566     1.9417     3.8612 </r>
       <r>     0.9682     1.9678     3.8841 </r>
       <r>     0.9798     1.9844     3.9071 </r>
       <r>     0.9915     1.9914     3.9303 </r>
       <r>     1.0031     1.9891     3.9534 </r>
       <r>     1.0147     1.9778     3.9764 </r>
       <r>     1.0264     1.9583     3.9992 </r>
       <r>     1.0380     1.9313     4.0217 </r>
       <r>     1.0496     1.8980     4.0437 </r>
       <r>     1.0613     1.8595     4.0654 </r>
       <r>     1.0729     1.8169     4.0865 </r>
       <r>     1.0845     1.7713     4.1071 </r>
       <r>     1.0961     1.7240     4.1271 </r>
       <r>     1.1078     1.6759     4.1466 </r>
       <r>     1.1194     1.6281     4.1656 </r>
       <r>     1.1310     1.5811     4.1840 </r>
       <r>     1.1427     1.5357     4.2018 </r>
       <r>     1.1543     1.4924     4.2192 </r>
       <r>     1.1659     1.4513     4.2361 </r>
       <r>     1.1776     1.4127     4.2525 </r>
       <r>     1.1892     1.3766     4.2685 </r>
       <r>     1.2008     1.3428     4.2841 </r>
       <r>     1.2124     1.3113     4.2994 </r>
       <r>     1.2241     1.2818     4.3143 </r>
       <r>     1.2357     1.2541     4.3289 </r>
       <r>     1.2473     1.2282     4.3431 </r>
       <r>     1.2590     1.2037     4.3571 </r>
       <r>     1.2706     1.1808     4.3709 </r>
       <r>     1.2822     1.1592     4.3844 </r>
       <r>     1.2939     1.1393     4.3976 </r>
       <r>     1.3055     1.1210     4.4106 </r>
       <r>     1.3171     1.1045     4.4235 </r>
       <r>     1.3287     1.0903     4.4362 </r>
       <r>     1.3404     1.0785     4.4487 </r>
       <r>     1.3520     1.0695     4.4611 </r>
       <r>     1.3636     1.0636     4.4735 </r>
       <r>     1.3753     1.0611     4.4859 </r>
       <r>     1.3869     1.0623     4.4982 </r>
       <r>     1.3985     1.0674     4.5106 </r>
       <r>     1.4102     1.0765     4.5231 </r>
       <r>     1.4218     1.0898     4.5358 </r>
       <r>     1.4334     1.1072     4.5487 </r>
[...]
        <r>  0.0194  0.0000  0.0179  0.0216  0.0000  0.0000  0.0009  0.0214  0.0073 </r>
        <r>  0.0194  0.0000  0.0179  0.0216  0.0000  0.0000  0.0009  0.0214  0.0073 </r>
       </set>
      </set>
      <set comment="kpoint 40">
       <set comment="band 1">
        <r>  0.0482  0.0015  0.0038  0.0032  0.0001  0.0001  0.0000  0.0001  0.0000 </r>
        <r>  0.0521  0.0017  0.0042  0.0030  0.0000  0.0001  0.0000  0.0001  0.0000 </r>
        <r>  0.0521  0.0017  0.0042  0.0030  0.0000  0.0001  0.0000  0.0001  0.0000 </r>
       </set>
       <set comment="band 2">
        <r>  0.0515  0.0017  0.0061  0.0028  0.0000  0.0001  0.0000  0.0002  0.0000 </r>
        <r>  0.0477  0.0016  0.0057  0.0030  0.0000  0.0001  0.0000  0.0002  0.0000 </r>
        <r>  0.0477  0.0016  0.0057  0.0030  0.0000  0.0001  0.0000  0.0002  0.0000 </r>
       </set>
       <set comment="band 3">
        <r>  0.0197  0.0010  0.0014  0.0289  0.0006  0.0000  0.0005  0.0009  0.0013 </r>
        <r>  0.0196  0.0011  0.0014  0.0289  0.0005  0.0000  0.0005  0.0010  0.0014 </r>
        <r>  0.0196  0.0011  0.0014  0.0289  0.0005  0.0000  0.0005  0.0010  0.0014 </r>
       </set>
       <set comment="band 4">
        <r>  0.0358  0.0027  0.0097  0.0117  0.0002  0.0001  0.0003  0.0018  0.0032 </r>
        <r>  0.0357  0.0025  0.0099  0.0118  0.0002  0.0002  0.0004  0.0017  0.0031 </r>
        <r>  0.0357  0.0025  0.0099  0.0118  0.0002  0.0002  0.0004  0.0017  0.0031 </r>
       </set>
       <set comment="band 5">
        <r>  0.0007  0.0247  0.0047  0.0037  0.0001  0.0060  0.0109  0.0006  0.0044 </r>
        <r>  0.0063  0.0206  0.0121  0.0006  0.0000  0.0041  0.0070  0.0010  0.0065 </r>
        <r>  0.0063  0.0206  0.0121  0.0006  0.0000  0.0041  0.0070  0.0010  0.0065 </r>
       </set>
       <set comment="band 6">
        <r>  0.0386  0.0046  0.0271  0.0016  0.0000  0.0005  0.0045  0.0005  0.0017 </r>
        <r>  0.0246  0.0171  0.0146  0.0025  0.0000  0.0045  0.0096  0.0014  0.0029 </r>
        <r>  0.0246  0.0171  0.0146  0.0025  0.0000  0.0045  0.0096  0.0014  0.0029 </r>
       </set>
       <set comment="band 7">
        <r>  0.0001  0.0101  0.0171  0.0013  0.0013  0.0036  0.0200  0.0032  0.0002 </r>
        <r>  0.0047  0.0077  0.0216  0.0019  0.0009  0.0022  0.0172  0.0026  0.0016 </r>
        <r>  0.0047  0.0077  0.0216  0.0019  0.0009  0.0022  0.0172  0.0026  0.0016 </r>
       </set>
       <set comment="band 8">
        <r>  0.0013  0.0309  0.0091  0.0111  0.0015  0.0029  0.0002  0.0000  0.0242 </r>
        <r>  0.0085  0.0112  0.0106  0.0121  0.0068  0.0010  0.0017  0.0027  0.0081 </r>
        <r>  0.0085  0.0112  0.0106  0.0121  0.0068  0.0010  0.0017  0.0027  0.0081 </r>
       </set>
       <set comment="band 9">
        <r>  0.0000  0.0070  0.0012  0.0045  0.0154  0.0026  0.0011  0.0033  0.0028 </r>
        <r>  0.0198  0.0239  0.0153  0.0027  0.0046  0.0041  0.0001  0.0001  0.0148 </r>
        <r>  0.0198  0.0239  0.0153  0.0027  0.0046  0.0041  0.0001  0.0001  0.0148 </r>
       </set>
       <set comment="band 10">
        <r>  0.0478  0.0044  0.0440  0.0078  0.0011  0.0019  0.0018  0.0090  0.0004 </r>
        <r>  0.0045  0.0039  0.0030  0.0270  0.0030  0.0042  0.0063  0.0120  0.0004 </r>
        <r>  0.0045  0.0039  0.0030  0.0270  0.0030  0.0042  0.0063  0.0120  0.0004 </r>
       </set>
       <set comment="band 11">
        <r>  0.0132  0.0052  0.0004  0.0156  0.0001  0.0052  0.0052  0.0161  0.0019 </r>
        <r>  0.0302  0.0020  0.0274  0.0124  0.0040  0.0012  0.0013  0.0087  0.0030 </r>
        <r>  0.0302  0.0020  0.0274  0.0124  0.0040  0.0012  0.0013  0.0087  0.0030 </r>
       </set>
       <set comment="band 12">
        <r>  0.0173  0.0001  0.0000  0.0606  0.0003  0.0007  0.0003  0.0000  0.0139 </r>
        <r>  0.0224  0.0012  0.0006  0.0428  0.0029  0.0027  0.0009  0.0031  0.0126 </r>
        <r>  0.0224  0.0012  0.0006  0.0428  0.0029  0.0027  0.0009  0.0031  0.0126 </r>
       </set>
      </set>
      <set comment="kpoint 41">
       <set comment="band 1">
        <r>  0.0346  0.0052  0.0058  0.0043  0.0003  0.0004  0.0000  0.0003  0.0000 </r>
        <r>  0.0443  0.0068  0.0077  0.0037  0.0002  0.0005  0.0000  0.0003  0.0000 </r>
        <r>  0.0443  0.0068  0.0077  0.0037  0.0002  0.0005  0.0000  0.0003  0.0000 </r>
       </set>
       <set comment="band 2">
        <r>  0.0469  0.0072  0.0107  0.0016  0.0001  0.0007  0.0001  0.0002  0.0000 </r>
        <r>  0.0372  0.0057  0.0088  0.0023  0.0001  0.0006  0.0001  0.0002  0.0000 </r>
        <r>  0.0372  0.0057  0.0088  0.0023  0.0001  0.0006  0.0001  0.0002  0.0000 </r>
       </set>
       <set comment="band 3">
        <r>  0.0052  0.0104  0.0059  0.0206  0.0023  0.0000  0.0004  0.0014  0.0026 </r>
        <r>  0.0060  0.0119  0.0053  0.0230  0.0018  0.0002  0.0004  0.0015  0.0028 </r>
        <r>  0.0060  0.0119  0.0053  0.0230  0.0018  0.0002  0.0004  0.0015  0.0028 </r>
       </set>
       <set comment="band 4">
        <r>  0.0005  0.0182  0.0108  0.0177  0.0010  0.0000  0.0002  0.0024  0.0028 </r>
        <r>  0.0032  0.0152  0.0100  0.0157  0.0012  0.0003  0.0001  0.0023  0.0024 </r>
        <r>  0.0032  0.0152  0.0100  0.0157  0.0012  0.0003  0.0001  0.0023  0.0024 </r>
       </set>
       <set comment="band 5">
        <r>  0.0598  0.0068  0.0037  0.0000  0.0000  0.0053  0.0026  0.0004  0.0004 </r>
        <r>  0.0513  0.0099  0.0067  0.0001  0.0002  0.0043  0.0018  0.0006  0.0016 </r>
        <r>  0.0513  0.0099  0.0067  0.0001  0.0002  0.0043  0.0018  0.0006  0.0016 </r>
       </set>
       <set comment="band 6">
        <r>  0.0140  0.0246  0.0011  0.0089  0.0039  0.0016  0.0017  0.0009  0.0029 </r>
        <r>  0.0176  0.0251  0.0001  0.0048  0.0047  0.0029  0.0036  0.0005  0.0019 </r>
        <r>  0.0176  0.0251  0.0001  0.0048  0.0047  0.0029  0.0036  0.0005  0.0019 </r>
       </set>
       <set comment="band 7">
        <r>  0.0005  0.0260  0.0051  0.0032  0.0014  0.0053  0.0071  0.0013  0.0009 </r>
        <r>  0.0094  0.0212  0.0055  0.0067  0.0020  0.0052  0.0060  0.0023  0.0008 </r>
        <r>  0.0094  0.0212  0.0055  0.0067  0.0020  0.0052  0.0060  0.0023  0.0008 </r>
       </set>
       <set comment="band 8">
        <r>  0.0655  0.0009  0.0232  0.0016  0.0084  0.0002  0.0019  0.0004  0.0009 </r>
        <r>  0.0423  0.0034  0.0204  0.0029  0.0056  0.0001  0.0013  0.0005  0.0015 </r>
        <r>  0.0423  0.0034  0.0204  0.0029  0.0056  0.0001  0.0013  0.0005  0.0015 </r>
       </set>
       <set comment="band 9">
        <r>  0.0088  0.0007  0.0299  0.0005  0.0011  0.0030  0.0096  0.0016  0.0012 </r>
        <r>  0.0315  0.0020  0.0321  0.0002  0.0016  0.0019  0.0090  0.0029  0.0004 </r>
        <r>  0.0315  0.0020  0.0321  0.0002  0.0016  0.0019  0.0090  0.0029  0.0004 </r>
       </set>
       <set comment="band 10">
        <r>  0.0186  0.0042  0.0204  0.0075  0.0003  0.0018  0.0021  0.0204  0.0006 </r>
        <r>  0.0147  0.0011  0.0224  0.0098  0.0024  0.0016  0.0030  0.0142  0.0001 </r>
        <r>  0.0147  0.0011  0.0224  0.0098  0.0024  0.0016  0.0030  0.0142  0.0001 </r>
       </set>
       <set comment="band 11">
        <r>  0.0110  0.0130  0.0095  0.0396  0.0086  0.0015  0.0013  0.0000  0.0005 </r>
        <r>  0.0074  0.0163  0.0034  0.0343  0.0112  0.0015  0.0030  0.0010  0.0019 </r>
        <r>  0.0074  0.0163  0.0034  0.0343  0.0112  0.0015  0.0030  0.0010  0.0019 </r>
       </set>
       <set comment="band 12">
        <r>  0.0202  0.0021  0.0066  0.0210  0.0179  0.0036  0.0052  0.0000  0.0129 </r>
        <r>  0.0197  0.0007  0.0018  0.0149  0.0076  0.0041  0.0082  0.0038  0.0123 </r>
        <r>  0.0197  0.0007  0.0018  0.0149  0.0076  0.0041  0.0082  0.0038  0.0123 </r>
       </set>
      </set>
      <set comment="kpoint 42">
       <set comment="band 1">
        <r>  0.0406  0.0000  0.0060  0.0044  0.0000  0.0000  0.0001  0.0003  0.0000 </r>
        <r>  0.0517  0.0000  0.0079  0.0038  0.0000  0.0000  0.0001  0.0003  0.0001 </r>
        <r>  0.0517  0.0000  0.0079  0.0038  0.0000  0.0000  0.0001  0.0003  0.0001 </r>
       </set>
       <set comment="band 2">
        <r>  0.0547  0.0000  0.0109  0.0017  0.0000  0.0000  0.0003  0.0002  0.0000 </r>
        <r>  0.0437  0.0000  0.0091  0.0024  0.0000  0.0000  0.0002  0.0002  0.0000 </r>
        <r>  0.0437  0.0000  0.0091  0.0024  0.0000  0.0000  0.0002  0.0002  0.0000 </r>
       </set>
       <set comment="band 3">
        <r>  0.0061  0.0000  0.0009  0.0375  0.0000  0.0000  0.0005  0.0028  0.0008 </r>
        <r>  0.0065  0.0000  0.0007  0.0371  0.0000  0.0000  0.0004  0.0030  0.0009 </r>
        <r>  0.0065  0.0000  0.0007  0.0371  0.0000  0.0000  0.0004  0.0030  0.0009 </r>
       </set>
       <set comment="band 4">
        <r>  0.0407  0.0000  0.0196  0.0029  0.0000  0.0000  0.0002  0.0015  0.0040 </r>
        <r>  0.0403  0.0000  0.0201  0.0033  0.0000  0.0000  0.0003  0.0013  0.0039 </r>
        <r>  0.0403  0.0000  0.0201  0.0033  0.0000  0.0000  0.0003  0.0013  0.0039 </r>
       </set>
       <set comment="band 5">
        <r>  0.0352  0.0000  0.0225  0.0021  0.0000  0.0000  0.0097  0.0006  0.0008 </r>
        <r>  0.0319  0.0000  0.0248  0.0013  0.0000  0.0000  0.0091  0.0014  0.0009 </r>
        <r>  0.0319  0.0000  0.0248  0.0013  0.0000  0.0000  0.0091  0.0014  0.0009 </r>
       </set>
       <set comment="band 6">
        <r>  0.0110  0.0000  0.0324  0.0024  0.0000  0.0000  0.0131  0.0024  0.0000 </r>
        <r>  0.0179  0.0000  0.0289  0.0015  0.0000  0.0000  0.0132  0.0029  0.0003 </r>
        <r>  0.0179  0.0000  0.0289  0.0015  0.0000  0.0000  0.0132  0.0029  0.0003 </r>
       </set>
       <set comment="band 7">
        <r>  0.0107  0.0000  0.0190  0.0071  0.0000  0.0000  0.0054  0.0137  0.0042 </r>
        <r>  0.0081  0.0000  0.0183  0.0117  0.0000  0.0000  0.0057  0.0132  0.0040 </r>
        <r>  0.0081  0.0000  0.0183  0.0117  0.0000  0.0000  0.0057  0.0132  0.0040 </r>
       </set>
       <set comment="band 8">
        <r>  0.0000  0.0703  0.0000  0.0000  0.0001  0.0079  0.0000  0.0000  0.0000 </r>
        <r>  0.0000  0.0721  0.0000  0.0000  0.0001  0.0081  0.0000  0.0000  0.0000 </r>
        <r>  0.0000  0.0721  0.0000  0.0000  0.0001  0.0081  0.0000  0.0000  0.0000 </r>
       </set>
       <set comment="band 9">
        <r>  0.0185  0.0000  0.0026  0.0148  0.0000  0.0000  0.0045  0.0135  0.0056 </r>
        <r>  0.0076  0.0000  0.0034  0.0088  0.0000  0.0000  0.0014  0.0029  0.0459 </r>
        <r>  0.0076  0.0000  0.0034  0.0088  0.0000  0.0000  0.0014  0.0029  0.0459 </r>
       </set>
       <set comment="band 10">
        <r>  0.0026  0.0000  0.0035  0.0120  0.0000  0.0000  0.0007  0.0016  0.0657 </r>
        <r>  0.0040  0.0000  0.0013  0.0270  0.0000  0.0000  0.0024  0.0097  0.0105 </r>
        <r>  0.0040  0.0000  0.0013  0.0270  0.0000  0.0000  0.0024  0.0097  0.0105 </r>
       </set>
       <set comment="band 11">
        <r>  0.0107  0.0000  0.0071  0.0501  0.0000  0.0000  0.0089  0.0001  0.0018 </r>
        <r>  0.0089  0.0000  0.0107  0.0266  0.0000  0.0000  0.0094  0.0045  0.0126 </r>
        <r>  0.0089  0.0000  0.0107  0.0266  0.0000  0.0000  0.0094  0.0045  0.0126 </r>
       </set>
       <set comment="band 12">
        <r>  0.0000  0.0622  0.0000  0.0000  0.0169  0.0058  0.0000  0.0000  0.0000 </r>
        <r>  0.0000  0.0612  0.0000  0.0000  0.0165  0.0054  0.0000  0.0000  0.0000 </r>
        <r>  0.0000  0.0612  0.0000  0.0000  0.0165  0.0054  0.0000  0.0000  0.0000 </r>
       </set>
      </set>
      <set comment="kpoint 43">
       <set comment="band 1">
        <r>  0.0546  0.0000  0.0000  0.0024  0.0000  0.0000  0.0000  0.0000  0.0000 </r>
        <r>  0.0590  0.0000  0.0000  0.0022  0.0000  0.0000  0.0000  0.0000  0.0000 </r>
        <r>  0.0590  0.0000  0.0000  0.0022  0.0000  0.0000  0.0000  0.0000  0.0000 </r>
       </set>
       <set comment="band 2">
        <r>  0.0585  0.0000  0.0001  0.0038  0.0000  0.0000  0.0000  0.0000  0.0001 </r>
        <r>  0.0543  0.0000  0.0001  0.0041  0.0000  0.0000  0.0000  0.0000  0.0000 </r>
        <r>  0.0543  0.0000  0.0001  0.0041  0.0000  0.0000  0.0000  0.0000  0.0000 </r>
       </set>
       <set comment="band 3">
        <r>  0.0263  0.0000  0.0004  0.0270  0.0000  0.0000  0.0004  0.0001  0.0012 </r>
        <r>  0.0262  0.0000  0.0004  0.0271  0.0000  0.0000  0.0004  0.0001  0.0012 </r>
        <r>  0.0262  0.0000  0.0004  0.0271  0.0000  0.0000  0.0004  0.0001  0.0012 </r>
       </set>
       <set comment="band 4">
        <r>  0.0460  0.0000  0.0002  0.0159  0.0000  0.0000  0.0011  0.0002  0.0035 </r>
        <r>  0.0459  0.0000  0.0002  0.0159  0.0000  0.0000  0.0011  0.0002  0.0036 </r>
        <r>  0.0459  0.0000  0.0002  0.0159  0.0000  0.0000  0.0011  0.0002  0.0036 </r>
       </set>
       <set comment="band 5">
        <r>  0.0103  0.0000  0.0005  0.0340  0.0000  0.0000  0.0051  0.0010  0.0164 </r>
        <r>  0.0103  0.0000  0.0005  0.0336  0.0000  0.0000  0.0052  0.0010  0.0167 </r>
        <r>  0.0103  0.0000  0.0005  0.0336  0.0000  0.0000  0.0052  0.0010  0.0167 </r>
       </set>
       <set comment="band 6">
        <r>  0.0067  0.0000  0.0005  0.0328  0.0000  0.0000  0.0068  0.0013  0.0218 </r>
        <r>  0.0066  0.0000  0.0005  0.0331  0.0000  0.0000  0.0068  0.0013  0.0216 </r>
        <r>  0.0066  0.0000  0.0005  0.0331  0.0000  0.0000  0.0068  0.0013  0.0216 </r>
       </set>
       <set comment="band 7">
        <r>  0.0000  0.0000  0.0034  0.0001  0.0000  0.0000  0.0521  0.0057  0.0214 </r>
        <r>  0.0000  0.0000  0.0245  0.0004  0.0000  0.0000  0.0373  0.0017  0.0140 </r>
        <r>  0.0000  0.0000  0.0245  0.0004  0.0000  0.0000  0.0373  0.0017  0.0140 </r>
       </set>
       <set comment="band 8">
        <r>  0.0000  0.0035  0.0000  0.0000  0.0001  0.0791  0.0000  0.0000  0.0000 </r>
        <r>  0.0000  0.0249  0.0000  0.0000  0.0003  0.0528  0.0000  0.0000  0.0000 </r>
        <r>  0.0000  0.0249  0.0000  0.0000  0.0003  0.0528  0.0000  0.0000  0.0000 </r>
       </set>
       <set comment="band 9">
        <r>  0.0000  0.0000  0.0739  0.0011  0.0000  0.0000  0.0020  0.0009  0.0010 </r>
        <r>  0.0000  0.0000  0.0476  0.0007  0.0000  0.0000  0.0353  0.0050  0.0150 </r>
        <r>  0.0000  0.0000  0.0476  0.0007  0.0000  0.0000  0.0353  0.0050  0.0150 </r>
       </set>
       <set comment="band 10">
        <r>  0.0000  0.0750  0.0000  0.0000  0.0003  0.0036  0.0000  0.0000  0.0000 </r>
        <r>  0.0000  0.0483  0.0000  0.0000  0.0003  0.0550  0.0000  0.0000  0.0000 </r>
        <r>  0.0000  0.0483  0.0000  0.0000  0.0003  0.0550  0.0000  0.0000  0.0000 </r>
       </set>
       <set comment="band 11">
        <r>  0.0000  0.0000  0.0020  0.0000  0.0000  0.0000  0.0777  0.0109  0.0171 </r>
        <r>  0.0000  0.0000  0.0134  0.0002  0.0000  0.0000  0.0460  0.0094  0.0094 </r>
        <r>  0.0000  0.0000  0.0134  0.0002  0.0000  0.0000  0.0460  0.0094  0.0094 </r>
       </set>
       <set comment="band 12">
        <r>  0.0000  0.0020  0.0000  0.0000  0.0316  0.0742  0.0000  0.0000  0.0000 </r>
        <r>  0.0000  0.0136  0.0000  0.0000  0.0233  0.0415  0.0000  0.0000  0.0000 </r>
        <r>  0.0000  0.0136  0.0000  0.0000  0.0233  0.0415  0.0000  0.0000  0.0000 </r>
       </set>
      </set>
      <set comment="kpoint 44">
       <set comment="band 1">
        <r>  0.0465  0.0014  0.0002  0.0035  0.0001  0.0000  0.0000  0.0000  0.0000 </r>
        <r>  0.0589  0.0018  0.0003  0.0029  0.0000  0.0000  0.0000  0.0000  0.0000 </r>
        <r>  0.0589  0.0018  0.0003  0.0029  0.0000  0.0000  0.0000  0.0000  0.0000 </r>
       </set>
       <set comment="band 2">
        <r>  0.0622  0.0019  0.0010  0.0026  0.0000  0.0000  0.0000  0.0000  0.0000 </r>
        <r>  0.0501  0.0015  0.0009  0.0033  0.0001  0.0000  0.0000  0.0000  0.0000 </r>
        <r>  0.0501  0.0015  0.0009  0.0033  0.0001  0.0000  0.0000  0.0000  0.0000 </r>
       </set>
       <set comment="band 3">
        <r>  0.0091  0.0004  0.0001  0.0370  0.0007  0.0000  0.0003  0.0001  0.0005 </r>
        <r>  0.0091  0.0004  0.0001  0.0371  0.0007  0.0000  0.0003  0.0001  0.0005 </r>
        <r>  0.0091  0.0004  0.0001  0.0371  0.0007  0.0000  0.0003  0.0001  0.0005 </r>
       </set>
       <set comment="band 4">
        <r>  0.0581  0.0030  0.0017  0.0052  0.0001  0.0000  0.0013  0.0004  0.0037 </r>
        <r>  0.0580  0.0030  0.0016  0.0052  0.0001  0.0000  0.0013  0.0005  0.0037 </r>
        <r>  0.0580  0.0030  0.0016  0.0052  0.0001  0.0000  0.0013  0.0005  0.0037 </r>
       </set>
       <set comment="band 5">
        <r>  0.0102  0.0078  0.0048  0.0230  0.0012  0.0079  0.0033  0.0000  0.0001 </r>
        <r>  0.0028  0.0210  0.0055  0.0085  0.0003  0.0074  0.0024  0.0003  0.0226 </r>
        <r>  0.0028  0.0210  0.0055  0.0085  0.0003  0.0074  0.0024  0.0003  0.0226 </r>
       </set>
       <set comment="band 6">
        <r>  0.0006  0.0245  0.0068  0.0050  0.0000  0.0038  0.0054  0.0013  0.0406 </r>
        <r>  0.0090  0.0014  0.0019  0.0331  0.0020  0.0022  0.0041  0.0009  0.0042 </r>
        <r>  0.0090  0.0014  0.0019  0.0331  0.0020  0.0022  0.0041  0.0009  0.0042 </r>
       </set>
       <set comment="band 7">
        <r>  0.0094  0.0015  0.0000  0.0263  0.0041  0.0022  0.0017  0.0030  0.0014 </r>
        <r>  0.0129  0.0146  0.0063  0.0103  0.0020  0.0074  0.0065  0.0026  0.0152 </r>
        <r>  0.0129  0.0146  0.0063  0.0103  0.0020  0.0074  0.0065  0.0026  0.0152 </r>
       </set>
       <set comment="band 8">
        <r>  0.0138  0.0155  0.0032  0.0169  0.0076  0.0161  0.0090  0.0005  0.0000 </r>
        <r>  0.0073  0.0111  0.0022  0.0159  0.0068  0.0155  0.0078  0.0006  0.0001 </r>
        <r>  0.0073  0.0111  0.0022  0.0159  0.0068  0.0155  0.0078  0.0006  0.0001 </r>
       </set>
       <set comment="band 9">
        <r>  0.0000  0.0147  0.0435  0.0006  0.0000  0.0057  0.0111  0.0013  0.0046 </r>
        <r>  0.0000  0.0152  0.0450  0.0007  0.0000  0.0058  0.0113  0.0015  0.0047 </r>
        <r>  0.0000  0.0152  0.0450  0.0007  0.0000  0.0058  0.0113  0.0015  0.0047 </r>
       </set>
       <set comment="band 10">
        <r>  0.0000  0.0059  0.0024  0.0010  0.0022  0.0314  0.0086  0.0033  0.0006 </r>
        <r>  0.0032  0.0075  0.0033  0.0052  0.0041  0.0279  0.0063  0.0039  0.0016 </r>
        <r>  0.0032  0.0075  0.0033  0.0052  0.0041  0.0279  0.0063  0.0039  0.0016 </r>
       </set>
       <set comment="band 11">
        <r>  0.0000  0.0126  0.0373  0.0005  0.0046  0.0051  0.0191  0.0068  0.0033 </r>
        <r>  0.0000  0.0124  0.0366  0.0005  0.0042  0.0050  0.0182  0.0061  0.0032 </r>
        <r>  0.0000  0.0124  0.0366  0.0005  0.0042  0.0050  0.0182  0.0061  0.0032 </r>
       </set>
       <set comment="band 12">
        <r>  0.0427  0.0294  0.0127  0.0116  0.0071  0.0043  0.0082  0.0003  0.0039 </r>
        <r>  0.0325  0.0213  0.0077  0.0070  0.0071  0.0052  0.0059  0.0017  0.0022 </r>
        <r>  0.0325  0.0213  0.0077  0.0070  0.0071  0.0052  0.0059  0.0017  0.0022 </r>
       </set>
      </set>
     </set>
    </set>
   </array>
  </projected>
 </calculation>
 <structure name="finalpos" >
  <crystal>
   <varray name="basis" >
    <v>       7.96016253      -1.57326895       0.05058524 </v>
    <v>       7.96016253       1.57326895       0.05058524 </v>
    <v>       7.63202560       0.00000000       2.75573909 </v>
   </varray>
   <i name="volume">     67.80809078 </i>
   <varray name="rec_basis" >
    <v>       0.06393807      -0.31780962      -0.17707664 </v>
    <v>       0.06393807       0.31780962      -0.17707664 </v>
    <v>      -0.00234734       0.00000000       0.36938001 </v>
   </varray>
  </crystal>
  <varray name="positions" >
   <v>       0.00000000       0.00000000       0.00000000 </v>
   <v>       0.22212257       0.22212257       0.22212257 </v>
   <v>       0.77787743       0.77787743       0.77787743 </v>
  </varray>
 </structure>
</modeling>
