<?xml version="1.0" encoding="ISO-8859-1"?>
<modeling>
 <generator>
  <i name="program" type="string">vasp </i>
  <i name="version" type="string">6.2.0  </i>
  <i name="subversion" type="string">18Jan21 (build Feb 15 2021 19:12:26) complex                          parallel </i>
  <i name="platform" type="string">LinuxIFC-AVX-CX1-JMF-Aug2020 </i>
  <i name="date" type="string">2024 01 25 </i>
  <i name="time" type="string">09:09:20 </i>
 </generator>
 <incar>
  <i type="string" name="PREC">Accurate</i>
  <i type="string" name="ALGO">Normal</i>
  <i type="int" name="ICHARG">     1</i>
  <i type="int" name="NELM">   120</i>
  <i type="int" name="IBRION">     2</i>
  <i name="EDIFF">      0.00000080</i>
  <i name="EDIFFG">     -0.01000000</i>
  <i type="int" name="NSW">   100</i>
  <i type="int" name="ISIF">     3</i>
  <i name="ENCUT">    585.00000000</i>
  <i type="int" name="NEDOS">  2000</i>
  <i type="string" name="LREAL">Auto</i>
  <i type="int" name="ISMEAR">     1</i>
  <i name="SIGMA">      0.20000000</i>
  <i type="int" name="LORBIT">    11</i>
  <i type="logical" name="LASPH"> T  </i>
  <i name="HFSCREEN">      0.00000000</i>
  <i type="logical" name="LHFCALC"> F  </i>
  <i type="string" name="GGA">Ps</i>
 </incar>
 <primitive_cell>
  <structure name="primitive_cell" >
   <crystal>
    <varray name="basis" >
     <v>       1.60185800      -2.77450000       0.00000000 </v>
     <v>       1.60185800       2.77450000       0.00000000 </v>
     <v>       0.00000000       0.00000000      10.32128700 </v>
    </varray>
    <i name="volume">     91.74292740 </i>
    <varray name="rec_basis" >
     <v>       0.31213753      -0.18021265       0.00000000 </v>
     <v>       0.31213753       0.18021265       0.00000000 </v>
     <v>       0.00000000       0.00000000       0.09688714 </v>
    </varray>
   </crystal>
   <varray name="positions" >
    <v>       0.00000000       0.00000000       0.00000000 </v>
    <v>       0.33333300       0.66666700       0.25000000 </v>
    <v>       0.00000000       0.00000000       0.50000000 </v>
    <v>       0.66666700       0.33333300       0.75000000 </v>
   </varray>
  </structure>
  <varray name="primitive_index" >
   <v type="int" >        1 </v>
   <v type="int" >        2 </v>
   <v type="int" >        3 </v>
   <v type="int" >        4 </v>
  </varray>
 </primitive_cell>
 <kpoints>
  <generation param="Gamma">
   <v type="int" name="divisions">       7        7        2 </v>
   <v name="usershift">      0.00000000       0.00000000       0.00000000 </v>
   <v name="genvec1">      0.14285714      -0.00000000       0.00000000 </v>
   <v name="genvec2">     -0.00000000       0.14285714       0.00000000 </v>
   <v name="genvec3">      0.00000000       0.00000000       0.50000000 </v>
   <v name="shift">      0.00000000       0.00000000       0.00000000 </v>
  </generation>
  <varray name="kpointlist" >
   <v>       0.00000000       0.00000000       0.00000000 </v>
   <v>       0.14285714       0.00000000       0.00000000 </v>
   <v>       0.28571429       0.00000000       0.00000000 </v>
   <v>       0.42857143      -0.00000000       0.00000000 </v>
   <v>       0.14285714       0.14285714       0.00000000 </v>
   <v>       0.28571429       0.14285714       0.00000000 </v>
   <v>       0.42857143       0.14285714       0.00000000 </v>
   <v>       0.28571429       0.28571429       0.00000000 </v>
   <v>       0.00000000       0.00000000       0.50000000 </v>
   <v>       0.14285714       0.00000000       0.50000000 </v>
   <v>       0.28571429       0.00000000       0.50000000 </v>
   <v>       0.42857143      -0.00000000       0.50000000 </v>
   <v>       0.14285714       0.14285714       0.50000000 </v>
   <v>       0.28571429       0.14285714       0.50000000 </v>
   <v>       0.42857143       0.14285714       0.50000000 </v>
   <v>       0.28571429       0.28571429       0.50000000 </v>
  </varray>
  <varray name="weights" >
   <v>       0.01020408 </v>
   <v>       0.06122449 </v>
   <v>       0.06122449 </v>
   <v>       0.06122449 </v>
   <v>       0.06122449 </v>
   <v>       0.12244898 </v>
   <v>       0.06122449 </v>
   <v>       0.06122449 </v>
   <v>       0.01020408 </v>
   <v>       0.06122449 </v>
   <v>       0.06122449 </v>
   <v>       0.06122449 </v>
   <v>       0.06122449 </v>
   <v>       0.12244898 </v>
   <v>       0.06122449 </v>
   <v>       0.06122449 </v>
  </varray>
 </kpoints>
 <parameters>
  <separator name="general" >
   <i type="string" name="SYSTEM">unknown system</i>
   <i type="logical" name="LCOMPAT"> F  </i>
  </separator>
  <separator name="electronic" >
   <i type="string" name="PREC">accura</i>
   <i name="ENMAX">    585.00000000</i>
   <i name="ENAUG">    454.73400000</i>
   <i name="EDIFF">      0.00000080</i>
   <i type="int" name="IALGO">    38</i>
   <i type="int" name="IWAVPR">    11</i>
   <i type="int" name="NBANDS">    12</i>
   <i type="int" name="NBANDSLOW">    -1</i>
   <i type="int" name="NBANDSHIGH">    -1</i>
   <i name="NELECT">      8.00000000</i>
   <i type="int" name="TURBO">     0</i>
   <i type="int" name="IRESTART">     0</i>
   <i type="int" name="NREBOOT">     0</i>
   <i type="int" name="NMIN">     0</i>
   <i name="EREF">      0.00000000</i>
   <separator name="electronic smearing" >
    <i type="int" name="ISMEAR">     1</i>
    <i name="SIGMA">      0.20000000</i>
    <i name="KSPACING">      0.50000000</i>
    <i type="logical" name="KGAMMA"> T  </i>
    <i type="logical" name="KBLOWUP"> T  </i>
   </separator>
   <separator name="electronic projectors" >
    <i type="logical" name="LREAL"> T  </i>
    <v name="ROPT">     -0.00025000</v>
    <i type="int" name="LMAXPAW">  -100</i>
    <i type="int" name="LMAXMIX">     2</i>
    <i type="logical" name="NLSPLINE"> F  </i>
   </separator>
   <separator name="electronic startup" >
    <i type="int" name="ISTART">     0</i>
    <i type="int" name="ICHARG">     1</i>
    <i type="int" name="INIWAV">     1</i>
   </separator>
   <separator name="electronic spin" >
    <i type="int" name="ISPIN">     1</i>
    <i type="logical" name="LNONCOLLINEAR"> F  </i>
    <v name="MAGMOM">      1.00000000      1.00000000      1.00000000      1.00000000</v>
    <i name="NUPDOWN">     -1.00000000</i>
    <i type="logical" name="LSORBIT"> F  </i>
    <v name="SAXIS">      0.00000000      0.00000000      1.00000000</v>
    <i type="logical" name="LSPIRAL"> F  </i>
    <v name="QSPIRAL">      0.00000000      0.00000000      0.00000000</v>
    <i type="logical" name="LZEROZ"> F  </i>
   </separator>
   <separator name="electronic exchange-correlation" >
    <i type="logical" name="LASPH"> T  </i>
    <i type="logical" name="LMETAGGA"> F  </i>
   </separator>
   <separator name="electronic convergence" >
    <i type="int" name="NELM">   120</i>
    <i type="int" name="NELMDL">    -5</i>
    <i type="int" name="NELMIN">     2</i>
    <i name="ENINI">    585.00000000</i>
    <separator name="electronic convergence detail" >
     <i type="logical" name="LDIAG"> T  </i>
     <i type="logical" name="LSUBROT"> F  </i>
     <i name="WEIMIN">      0.00100000</i>
     <i name="EBREAK">      0.00000002</i>
     <i name="DEPER">      0.30000000</i>
     <i type="int" name="NRMM">     4</i>
     <i name="TIME">      0.40000000</i>
    </separator>
   </separator>
   <separator name="electronic mixer" >
    <i name="AMIX">      0.40000000</i>
    <i name="BMIX">      1.00000000</i>
    <i name="AMIN">      0.10000000</i>
    <i name="AMIX_MAG">      1.60000000</i>
    <i name="BMIX_MAG">      1.00000000</i>
    <separator name="electronic mixer details" >
     <i type="int" name="IMIX">     4</i>
     <i type="logical" name="MIXFIRST"> F  </i>
     <i type="int" name="MAXMIX">   -45</i>
     <i name="WC">    100.00000000</i>
     <i type="int" name="INIMIX">     1</i>
     <i type="int" name="MIXPRE">     1</i>
     <i type="int" name="MREMOVE">     5</i>
    </separator>
   </separator>
   <separator name="electronic dipolcorrection" >
    <i type="logical" name="LDIPOL"> F  </i>
    <i type="logical" name="LMONO"> F  </i>
    <i type="int" name="IDIPOL">     0</i>
    <i name="EPSILON">      1.00000000</i>
    <v name="DIPOL">   -100.00000000   -100.00000000   -100.00000000</v>
    <i name="EFIELD">      0.00000000</i>
   </separator>
  </separator>
  <separator name="grids" >
   <i type="int" name="NGX">    28</i>
   <i type="int" name="NGY">    28</i>
   <i type="int" name="NGZ">    84</i>
   <i type="int" name="NGXF">    56</i>
   <i type="int" name="NGYF">    56</i>
   <i type="int" name="NGZF">   168</i>
   <i type="logical" name="ADDGRID"> F  </i>
  </separator>
  <separator name="ionic" >
   <i type="int" name="NSW">   100</i>
   <i type="int" name="IBRION">     2</i>
   <i type="int" name="MDALGO">     0</i>
   <i type="int" name="ISIF">     3</i>
   <i name="PSTRESS">      0.00000000</i>
   <i name="EDIFFG">     -0.01000000</i>
   <i type="int" name="NFREE">     1</i>
   <i name="POTIM">      0.50000000</i>
   <i name="SMASS">     -3.00000000</i>
   <i name="SCALEE">      1.00000000</i>
  </separator>
  <separator name="ionic md" >
   <i name="TEBEG">      0.00010000</i>
   <i name="TEEND">      0.00010000</i>
   <i type="int" name="NBLOCK">     1</i>
   <i type="int" name="KBLOCK">   100</i>
   <i type="int" name="NPACO">   256</i>
   <i name="APACO">     16.00000000</i>
  </separator>
  <separator name="symmetry" >
   <i type="int" name="ISYM">     2</i>
   <i name="SYMPREC">      0.00001000</i>
  </separator>
  <separator name="dos" >
   <i type="int" name="LORBIT">    11</i>
   <v name="RWIGS">     -1.00000000</v>
   <i type="int" name="NEDOS">  2000</i>
   <i name="EMIN">     10.00000000</i>
   <i name="EMAX">    -10.00000000</i>
   <i name="EFERMI">      0.00000000</i>
  </separator>
  <separator name="writing" >
   <i type="int" name="NWRITE">     2</i>
   <i type="logical" name="LWAVE"> T  </i>
   <i type="logical" name="LDOWNSAMPLE"> F  </i>
   <i type="logical" name="LCHARG"> T  </i>
   <i type="logical" name="LPARD"> F  </i>
   <i type="logical" name="LVTOT"> F  </i>
   <i type="logical" name="LVHAR"> F  </i>
   <i type="logical" name="LELF"> F  </i>
   <i type="logical" name="LOPTICS"> F  </i>
   <v name="STM">      0.00000000      0.00000000      0.00000000      0.00000000      0.00000000      0.00000000      0.00000000</v>
  </separator>
  <separator name="performance" >
   <i type="int" name="NPAR">     6</i>
   <i type="int" name="NSIM">     4</i>
   <i type="int" name="NBLK">    -1</i>
   <i type="logical" name="LPLANE"> T  </i>
   <i type="logical" name="LSCALAPACK"> T  </i>
   <i type="logical" name="LSCAAWARE"> F  </i>
   <i type="logical" name="LSCALU"> F  </i>
   <i type="logical" name="LASYNC"> F  </i>
   <i type="logical" name="LORBITALREAL"> F  </i>
  </separator>
  <separator name="miscellaneous" >
   <i type="int" name="IDIOT">     3</i>
   <i type="int" name="PHON_NSTRUCT">    -1</i>
   <i type="logical" name="LMUSIC"> F  </i>
   <v name="POMASS">     24.30500000</v>
   <v name="DARWINR">      0.00000000</v>
   <v name="DARWINV">      1.00000000</v>
   <i type="logical" name="LCORR"> T  </i>
  </separator>
  <i type="logical" name="GGA_COMPAT"> T  </i>
  <i type="logical" name="LBERRY"> F  </i>
  <i type="int" name="ICORELEVEL">     0</i>
  <i type="logical" name="LDAU"> F  </i>
  <i type="int" name="I_CONSTRAINED_M">     0</i>
  <separator name="electronic exchange-correlation" >
   <i type="string" name="GGA">PS</i>
   <i type="int" name="VOSKOWN">     0</i>
   <i type="logical" name="LHFCALC"> F  </i>
   <i type="string" name="PRECFOCK"></i>
   <i type="logical" name="LSYMGRAD"> F  </i>
   <i type="logical" name="LHFONE"> F  </i>
   <i type="logical" name="LRHFCALC"> F  </i>
   <i type="logical" name="LTHOMAS"> F  </i>
   <i type="logical" name="LMODELHF"> F  </i>
   <i type="logical" name="LFOCKACE"> F  </i>
   <i name="ENCUT4O">     -1.00000000</i>
   <i type="int" name="EXXOEP">     0</i>
   <i type="int" name="FOURORBIT">     0</i>
   <i name="AEXX">      0.00000000</i>
   <i name="HFALPHA">      0.00000000</i>
   <i name="MCALPHA">      0.00000000</i>
   <i name="ALDAX">      1.00000000</i>
   <i name="AGGAX">      1.00000000</i>
   <i name="ALDAC">      1.00000000</i>
   <i name="AGGAC">      1.00000000</i>
   <i type="int" name="NKREDX">     1</i>
   <i type="int" name="NKREDY">     1</i>
   <i type="int" name="NKREDZ">     1</i>
   <i type="logical" name="SHIFTRED"> F  </i>
   <i type="logical" name="ODDONLY"> F  </i>
   <i type="logical" name="EVENONLY"> F  </i>
   <i type="int" name="LMAXFOCK">     0</i>
   <i type="int" name="NMAXFOCKAE">     0</i>
   <i type="logical" name="LFOCKAEDFT"> F  </i>
   <i name="HFSCREEN">      0.00000000</i>
   <i name="HFSCREENC">      0.00000000</i>
   <i type="int" name="NBANDSGWLOW">     0</i>
  </separator>
  <separator name="vdW DFT" >
   <i type="logical" name="LUSE_VDW"> F  </i>
   <i name="Zab_VDW">     -0.84910000</i>
   <i name="PARAM1">      0.12340000</i>
   <i name="PARAM2">      1.00000000</i>
   <i name="PARAM3">      0.00000000</i>
  </separator>
  <separator name="model GW" >
   <i type="int" name="MODEL_GW">     0</i>
   <i name="MODEL_EPS0">     13.76143911</i>
   <i name="MODEL_ALPHA">      1.00000000</i>
  </separator>
  <separator name="linear response parameters" >
   <i type="logical" name="LEPSILON"> F  </i>
   <i type="logical" name="LRPA"> F  </i>
   <i type="logical" name="LNABLA"> F  </i>
   <i type="logical" name="LVEL"> F  </i>
   <i type="int" name="KINTER">     0</i>
   <i name="CSHIFT">      0.10000000</i>
   <i name="OMEGAMAX">     -1.00000000</i>
   <i name="DEG_THRESHOLD">      0.00200000</i>
   <i name="RTIME">     -0.10000000</i>
   <i name="WPLASMAI">      0.00000000</i>
   <v name="DFIELD">      0.00000000      0.00000000      0.00000000</v>
   <v name="WPLASMA">      0.00000000      0.00000000      0.00000000      0.00000000      0.00000000      0.00000000      0.00000000      0.00000000      0.00000000</v>
  </separator>
  <separator name="orbital magnetization" >
   <i type="logical" name="NUCIND"> F  </i>
   <v name="MAGPOS">      0.00000000      0.00000000      0.00000000</v>
   <i type="logical" name="LNICSALL"> T  </i>
   <i type="logical" name="ORBITALMAG"> F  </i>
   <i type="logical" name="LMAGBLOCH"> F  </i>
   <i type="logical" name="LCHIMAG"> F  </i>
   <i type="logical" name="LGAUGE"> T  </i>
   <i type="int" name="MAGATOM">     0</i>
   <v name="MAGDIPOL">      0.00000000      0.00000000      0.00000000</v>
   <v name="AVECCONST">      0.00000000      0.00000000      0.00000000</v>
  </separator>
  <separator name="response functions" >
   <i type="logical" name="LFINITE_TEMPERATURE"> F  </i>
   <i type="logical" name="LADDER"> F  </i>
   <i type="logical" name="LRPAFORCE"> F  </i>
   <i type="logical" name="LFXC"> F  </i>
   <i type="logical" name="LHARTREE"> T  </i>
   <i type="int" name="IBSE">     0</i>
   <v type="int" name="KPOINT">    -1     0     0     0</v>
   <i type="logical" name="LTCTC"> F  </i>
   <i type="logical" name="LTCTE"> F  </i>
   <i type="logical" name="LTETE"> F  </i>
   <i type="logical" name="LTRIPLET"> F  </i>
   <i type="logical" name="LFXCEPS"> F  </i>
   <i type="logical" name="LFXHEG"> F  </i>
   <i type="int" name="NATURALO">     2</i>
   <i type="logical" name="LHOLEGF"> F  </i>
   <i type="logical" name="L2ORDER"> F  </i>
   <i type="logical" name="LDMP1"> F  </i>
   <i type="logical" name="LMP2LT"> F  </i>
   <i type="logical" name="LSMP2LT"> F  </i>
   <i type="logical" name="LGWLF"> F  </i>
   <i name="ENCUTGW">     -2.00000000</i>
   <i name="ENCUTGWSOFT">     -2.00000000</i>
   <i name="ENCUTLF">     -1.00000000</i>
   <i type="logical" name="LESF_SPLINES"> F  </i>
   <i type="int" name="LMAXMP2">    -1</i>
   <i name="SCISSOR">      0.00000000</i>
   <i type="int" name="NOMEGA">     0</i>
   <i type="int" name="NOMEGAR">     0</i>
   <i type="int" name="NBANDSGW">    -1</i>
   <i type="int" name="NBANDSO">    -1</i>
   <i type="int" name="NBANDSV">    -1</i>
   <i type="int" name="NELM">   120</i>
   <i type="int" name="NELMHF">     1</i>
   <i type="int" name="DIM">     3</i>
   <i type="int" name="IESPILON">     4</i>
   <i type="int" name="ANTIRES">     0</i>
   <i name="OMEGAMAX">    -30.00000000</i>
   <i name="OMEGAMIN">    -30.00000000</i>
   <i name="OMEGATL">   -200.00000000</i>
   <i type="int" name="OMEGAGRID">     0</i>
   <i name="CSHIFT">     -0.10000000</i>
   <i type="logical" name="LSELFENERGY"> F  </i>
   <i type="logical" name="LSPECTRAL"> F  </i>
   <i type="logical" name="LSPECTRALGW"> F  </i>
   <i type="logical" name="LSINGLES"> F  </i>
   <i type="logical" name="LFERMIGW"> F  </i>
   <i type="logical" name="ODDONLYGW"> F  </i>
   <i type="logical" name="EVENONLYGW"> F  </i>
   <i type="int" name="NKREDLFX">     1</i>
   <i type="int" name="NKREDLFY">     1</i>
   <i type="int" name="NKREDLFZ">     1</i>
   <i type="int" name="MAXMEM">  2800</i>
   <i type="int" name="TELESCOPE">     0</i>
   <i type="int" name="NTAUPAR">    -1</i>
   <i type="int" name="NOMEGAPAR">    -1</i>
   <i name="DAMP_NEWTON">      0.80000001</i>
   <i name="LAMBDA">      1.00000000</i>
  </separator>
  <separator name="External order field" >
   <i name="OFIELD_KAPPA">      0.00000000</i>
   <v name="OFIELD_K">      0.00000000      0.00000000      0.00000000</v>
   <i name="OFIELD_Q6_NEAR">      0.00000000</i>
   <i name="OFIELD_Q6_FAR">      0.00000000</i>
   <i name="OFIELD_A">      0.00000000</i>
  </separator>
 </parameters>
 <atominfo>
  <atoms>       4 </atoms>
  <types>       1 </types>
  <array name="atoms" >
   <dimension dim="1">ion</dimension>
   <field type="string">element</field>
   <field type="int">atomtype</field>
   <set>
    <rc><c>Mg</c><c>   1</c></rc>
    <rc><c>Mg</c><c>   1</c></rc>
    <rc><c>Mg</c><c>   1</c></rc>
    <rc><c>Mg</c><c>   1</c></rc>
   </set>
  </array>
  <array name="atomtypes" >
   <dimension dim="1">type</dimension>
   <field type="int">atomspertype</field>
   <field type="string">element</field>
   <field>mass</field>
   <field>valence</field>
   <field type="string">pseudopotential</field>
   <set>
    <rc><c>   4</c><c>Mg</c><c>     24.30500000</c><c>      2.00000000</c><c>  PAW_PBE Mg 13Apr2007                  </c></rc>
   </set>
  </array>
 </atominfo>
 <structure name="initialpos" >
  <crystal>
   <varray name="basis" >
    <v>       1.60185800      -2.77450000       0.00000000 </v>
    <v>       1.60185800       2.77450000       0.00000000 </v>
    <v>       0.00000000       0.00000000      10.32128700 </v>
   </varray>
   <i name="volume">     91.74292740 </i>
   <varray name="rec_basis" >
    <v>       0.31213753      -0.18021265       0.00000000 </v>
    <v>       0.31213753       0.18021265       0.00000000 </v>
    <v>       0.00000000       0.00000000       0.09688714 </v>
   </varray>
  </crystal>
  <varray name="positions" >
   <v>       0.00000000       0.00000000       0.00000000 </v>
   <v>       0.33333300       0.66666700       0.25000000 </v>
   <v>       0.00000000       0.00000000       0.50000000 </v>
   <v>       0.66666700       0.33333300       0.75000000 </v>
  </varray>
 </structure>
 <calculation>
  <scstep>
   <time name="dav">    0.10    0.11</time>
   <time name="total">    0.25    0.25</time>
   <energy>
    <i name="alphaZ">      7.84901224 </i>
    <i name="ewald">   -117.10096294 </i>
    <i name="hartreedc">     -0.11650128 </i>
    <i name="XCdc">   -190.78263759 </i>
    <i name="pawpsdc">    256.19812558 </i>
    <i name="pawaedc">    -53.08249392 </i>
    <i name="eentropy">     -0.00101124 </i>
    <i name="bandstr">      6.89214849 </i>
    <i name="atom">     91.12005295 </i>
    <i name="e_fr_energy">      0.97573228 </i>
    <i name="e_wo_entrp">      0.97674352 </i>
    <i name="e_0_energy">      0.97606936 </i>
   </energy>
  </scstep>
  <scstep>
   <time name="dav">    0.16    0.16</time>
   <time name="total">    0.17    0.17</time>
   <energy>
    <i name="e_fr_energy">     -6.91141416 </i>
    <i name="e_wo_entrp">     -6.90864675 </i>
    <i name="e_0_energy">     -6.91049169 </i>
   </energy>
  </scstep>
  <scstep>
   <time name="dav">    0.14    0.14</time>
   <time name="total">    0.14    0.14</time>
   <energy>
    <i name="e_fr_energy">     -6.95727640 </i>
    <i name="e_wo_entrp">     -6.95509326 </i>
    <i name="e_0_energy">     -6.95654868 </i>
   </energy>
  </scstep>
  <scstep>
   <time name="dav">    0.13    0.14</time>
   <time name="total">    0.13    0.14</time>
   <energy>
    <i name="e_fr_energy">     -6.95743765 </i>
    <i name="e_wo_entrp">     -6.95526056 </i>
    <i name="e_0_energy">     -6.95671195 </i>
   </energy>
  </scstep>
  <scstep>
   <time name="dav">    0.12    0.13</time>
   <time name="total">    0.15    0.15</time>
   <energy>
    <i name="e_fr_energy">     -6.95743767 </i>
    <i name="e_wo_entrp">     -6.95526059 </i>
    <i name="e_0_energy">     -6.95671198 </i>
   </energy>
  </scstep>
  <scstep>
   <time name="dav">    0.11    0.11</time>
   <time name="total">    0.25    0.25</time>
   <energy>
    <i name="e_fr_energy">     -6.93588470 </i>
    <i name="e_wo_entrp">     -6.93351000 </i>
    <i name="e_0_energy">     -6.93509314 </i>
   </energy>
  </scstep>
  <scstep>
   <time name="dav">    0.11    0.11</time>
   <time name="total">    0.24    0.24</time>
   <energy>
    <i name="e_fr_energy">     -6.91682412 </i>
    <i name="e_wo_entrp">     -6.91402499 </i>
    <i name="e_0_energy">     -6.91589108 </i>
   </energy>
  </scstep>
  <scstep>
   <time name="dav">    0.13    0.13</time>
   <time name="total">    0.25    0.25</time>
   <energy>
    <i name="e_fr_energy">     -6.91681291 </i>
    <i name="e_wo_entrp">     -6.91399707 </i>
    <i name="e_0_energy">     -6.91587430 </i>
   </energy>
  </scstep>
  <scstep>
   <time name="dav">    0.10    0.10</time>
   <time name="total">    0.23    0.23</time>
   <energy>
    <i name="e_fr_energy">     -6.91681125 </i>
    <i name="e_wo_entrp">     -6.91398909 </i>
    <i name="e_0_energy">     -6.91587053 </i>
   </energy>
  </scstep>
  <scstep>
   <time name="dav">    0.08    0.08</time>
   <time name="total">    0.20    0.20</time>
   <energy>
    <i name="alphaZ">      7.84901224 </i>
    <i name="ewald">   -117.10096294 </i>
    <i name="hartreedc">     -0.21254392 </i>
    <i name="XCdc">   -190.45883362 </i>
    <i name="pawpsdc">    234.08471901 </i>
    <i name="pawaedc">    -30.99382435 </i>
    <i name="eentropy">     -0.00282247 </i>
    <i name="bandstr">     -1.20160788 </i>
    <i name="atom">     91.12005295 </i>
    <i name="e_fr_energy">     -6.91681098 </i>
    <i name="e_wo_entrp">     -6.91398851 </i>
    <i name="e_0_energy">     -6.91587016 </i>
   </energy>
  </scstep>
  <structure>
   <crystal>
    <varray name="basis" >
     <v>       1.60185800      -2.77450000       0.00000000 </v>
     <v>       1.60185800       2.77450000       0.00000000 </v>
     <v>       0.00000000       0.00000000      10.32128700 </v>
    </varray>
    <i name="volume">     91.74292740 </i>
    <varray name="rec_basis" >
     <v>       0.31213753      -0.18021265       0.00000000 </v>
     <v>       0.31213753       0.18021265       0.00000000 </v>
     <v>       0.00000000       0.00000000       0.09688714 </v>
    </varray>
   </crystal>
   <varray name="positions" >
    <v>       0.00000000       0.00000000       0.00000000 </v>
    <v>       0.33333300       0.66666700       0.25000000 </v>
    <v>       0.00000000       0.00000000       0.50000000 </v>
    <v>       0.66666700       0.33333300       0.75000000 </v>
   </varray>
  </structure>
  <varray name="forces" >
   <v>       0.00000000       0.00000000       0.00000000 </v>
   <v>      -0.00000000      -0.00000000      -0.00000000 </v>
   <v>       0.00000000       0.00000000       0.00000000 </v>
   <v>       0.00000000       0.00000000       0.00000000 </v>
  </varray>
  <varray name="stress" >
   <v>     -14.03553910      -0.00000000       0.00000000 </v>
   <v>       0.00000000     -14.03554474       0.00000000 </v>
   <v>       0.00000000      -0.00000000      13.86615544 </v>
  </varray>
  <energy>
   <i name="e_fr_energy">     -6.91681098 </i>
   <i name="e_wo_entrp">     -6.91398851 </i>
   <i name="e_0_energy">     -6.91587016 </i>
  </energy>
  <time name="totalsc">    2.84    2.89</time>
 </calculation>
 <calculation>
  <scstep>
   <time name="dav">    0.09    0.09</time>
   <time name="total">    0.22    0.22</time>
   <energy>
    <i name="alphaZ">      7.92750134 </i>
    <i name="ewald">   -117.49299690 </i>
    <i name="hartreedc">     -0.21349496 </i>
    <i name="XCdc">   -190.42727507 </i>
    <i name="pawpsdc">    234.08766304 </i>
    <i name="pawaedc">    -30.99677258 </i>
    <i name="eentropy">     -0.00280636 </i>
    <i name="bandstr">     -0.93846588 </i>
    <i name="atom">     91.12005295 </i>
    <i name="e_fr_energy">     -6.93659443 </i>
    <i name="e_wo_entrp">     -6.93378807 </i>
    <i name="e_0_energy">     -6.93565898 </i>
   </energy>
  </scstep>
  <scstep>
   <time name="dav">    0.08    0.08</time>
   <time name="total">    0.20    0.20</time>
   <energy>
    <i name="e_fr_energy">     -6.93628443 </i>
    <i name="e_wo_entrp">     -6.93345892 </i>
    <i name="e_0_energy">     -6.93534260 </i>
   </energy>
  </scstep>
  <scstep>
   <time name="dav">    0.09    0.09</time>
   <time name="total">    0.21    0.21</time>
   <energy>
    <i name="e_fr_energy">     -6.93608030 </i>
    <i name="e_wo_entrp">     -6.93321519 </i>
    <i name="e_0_energy">     -6.93512526 </i>
   </energy>
  </scstep>
  <scstep>
   <time name="dav">    0.08    0.08</time>
   <time name="total">    0.19    0.20</time>
   <energy>
    <i name="alphaZ">      7.92750134 </i>
    <i name="ewald">   -117.49299690 </i>
    <i name="hartreedc">     -0.21683386 </i>
    <i name="XCdc">   -190.42013879 </i>
    <i name="pawpsdc">    234.37067148 </i>
    <i name="pawaedc">    -31.28240862 </i>
    <i name="eentropy">     -0.00286504 </i>
    <i name="bandstr">     -0.93906279 </i>
    <i name="atom">     91.12005295 </i>
    <i name="e_fr_energy">     -6.93608023 </i>
    <i name="e_wo_entrp">     -6.93321519 </i>
    <i name="e_0_energy">     -6.93512522 </i>
   </energy>
  </scstep>
  <structure>
   <crystal>
    <varray name="basis" >
     <v>       1.58633104      -2.74760651      -0.00000000 </v>
     <v>       1.58633104       2.74760651       0.00000000 </v>
     <v>       0.00000000      -0.00000000      10.42012481 </v>
    </varray>
    <i name="volume">     90.83459334 </i>
    <varray name="rec_basis" >
     <v>       0.31519272      -0.18197657      -0.00000000 </v>
     <v>       0.31519272       0.18197657       0.00000000 </v>
     <v>       0.00000000      -0.00000000       0.09596814 </v>
    </varray>
   </crystal>
   <varray name="positions" >
    <v>      -0.00000000       0.00000000       0.00000000 </v>
    <v>       0.33333300       0.66666700       0.25000000 </v>
    <v>      -0.00000000       0.00000000       0.50000000 </v>
    <v>       0.66666700       0.33333300       0.75000000 </v>
   </varray>
  </structure>
  <varray name="forces" >
   <v>       0.00000000       0.00000000      -0.00000000 </v>
   <v>       0.00000000       0.00000000       0.00000000 </v>
   <v>       0.00000000       0.00000000      -0.00000000 </v>
   <v>      -0.00000000      -0.00000000       0.00000000 </v>
  </varray>
  <varray name="stress" >
   <v>      -7.75188022       0.00000000      -0.00000000 </v>
   <v>      -0.00000000      -7.75188327       0.00000000 </v>
   <v>       0.00000000       0.00000000      11.13893240 </v>
  </varray>
  <energy>
   <i name="e_fr_energy">     -6.93608023 </i>
   <i name="e_wo_entrp">     -6.93321519 </i>
   <i name="e_0_energy">     -6.93512522 </i>
  </energy>
  <time name="totalsc">    1.17    1.21</time>
 </calculation>
 <calculation>
  <scstep>
   <time name="dav">    0.09    0.09</time>
   <time name="total">    0.21    0.21</time>
   <energy>
    <i name="alphaZ">      8.01546649 </i>
    <i name="ewald">   -117.91526867 </i>
    <i name="hartreedc">     -0.21763103 </i>
    <i name="XCdc">   -190.38510855 </i>
    <i name="pawpsdc">    234.36798595 </i>
    <i name="pawaedc">    -31.27970357 </i>
    <i name="eentropy">     -0.00820905 </i>
    <i name="bandstr">     -0.64303911 </i>
    <i name="atom">     91.12005295 </i>
    <i name="e_fr_energy">     -6.94545459 </i>
    <i name="e_wo_entrp">     -6.93724554 </i>
    <i name="e_0_energy">     -6.94271824 </i>
   </energy>
  </scstep>
  <scstep>
   <time name="dav">    0.08    0.08</time>
   <time name="total">    0.20    0.20</time>
   <energy>
    <i name="e_fr_energy">     -6.94506010 </i>
    <i name="e_wo_entrp">     -6.93690744 </i>
    <i name="e_0_energy">     -6.94234255 </i>
   </energy>
  </scstep>
  <scstep>
   <time name="dav">    0.09    0.09</time>
   <time name="total">    0.21    0.21</time>
   <energy>
    <i name="e_fr_energy">     -6.94481045 </i>
    <i name="e_wo_entrp">     -6.93675538 </i>
    <i name="e_0_energy">     -6.94212542 </i>
   </energy>
  </scstep>
  <scstep>
   <time name="dav">    0.08    0.08</time>
   <time name="total">    0.19    0.19</time>
   <energy>
    <i name="alphaZ">      8.01546649 </i>
    <i name="ewald">   -117.91526867 </i>
    <i name="hartreedc">     -0.22484171 </i>
    <i name="XCdc">   -190.37687245 </i>
    <i name="pawpsdc">    234.79124582 </i>
    <i name="pawaedc">    -31.70633465 </i>
    <i name="eentropy">     -0.00805483 </i>
    <i name="bandstr">     -0.64020319 </i>
    <i name="atom">     91.12005295 </i>
    <i name="e_fr_energy">     -6.94481024 </i>
    <i name="e_wo_entrp">     -6.93675541 </i>
    <i name="e_0_energy">     -6.94212530 </i>
   </energy>
  </scstep>
  <structure>
   <crystal>
    <varray name="basis" >
     <v>       1.56960297      -2.71863261      -0.00000000 </v>
     <v>       1.56960297       2.71863261       0.00000000 </v>
     <v>       0.00000000      -0.00000000      10.52660843 </v>
    </varray>
    <i name="volume">     89.83773575 </i>
    <varray name="rec_basis" >
     <v>       0.31855190      -0.18391599      -0.00000000 </v>
     <v>       0.31855190       0.18391599       0.00000000 </v>
     <v>       0.00000000      -0.00000000       0.09499736 </v>
    </varray>
   </crystal>
   <varray name="positions" >
    <v>      -0.00000000       0.00000000       0.00000000 </v>
    <v>       0.33333300       0.66666700       0.25000000 </v>
    <v>      -0.00000000       0.00000000       0.50000000 </v>
    <v>       0.66666700       0.33333300       0.75000000 </v>
   </varray>
  </structure>
  <varray name="forces" >
   <v>       0.00000000       0.00000000      -0.00000000 </v>
   <v>       0.00000000      -0.00000000      -0.00000000 </v>
   <v>       0.00000000       0.00000000      -0.00000000 </v>
   <v>      -0.00000000       0.00000000       0.00000000 </v>
  </varray>
  <varray name="stress" >
   <v>       1.04871694      -0.00000000       0.00000000 </v>
   <v>      -0.00000000       1.04871734       0.00000000 </v>
   <v>      -0.00000000      -0.00000000       6.49536228 </v>
  </varray>
  <energy>
   <i name="e_fr_energy">     -6.94481024 </i>
   <i name="e_wo_entrp">     -6.93675541 </i>
   <i name="e_0_energy">     -6.94212530 </i>
  </energy>
  <time name="totalsc">    1.16    1.21</time>
 </calculation>
 <calculation>
  <scstep>
   <time name="dav">    0.09    0.09</time>
   <time name="total">    0.22    0.22</time>
   <energy>
    <i name="alphaZ">      8.03278073 </i>
    <i name="ewald">   -117.99630448 </i>
    <i name="hartreedc">     -0.22502347 </i>
    <i name="XCdc">   -190.36989991 </i>
    <i name="pawpsdc">    234.78815887 </i>
    <i name="pawaedc">    -31.70322319 </i>
    <i name="eentropy">     -0.00914542 </i>
    <i name="bandstr">     -0.58252334 </i>
    <i name="atom">     91.12005295 </i>
    <i name="e_fr_energy">     -6.94512727 </i>
    <i name="e_wo_entrp">     -6.93598185 </i>
    <i name="e_0_energy">     -6.94207880 </i>
   </energy>
  </scstep>
  <scstep>
   <time name="dav">    0.08    0.08</time>
   <time name="total">    0.21    0.21</time>
   <energy>
    <i name="e_fr_energy">     -6.94510700 </i>
    <i name="e_wo_entrp">     -6.93596577 </i>
    <i name="e_0_energy">     -6.94205992 </i>
   </energy>
  </scstep>
  <scstep>
   <time name="dav">    0.08    0.08</time>
   <time name="total">    0.20    0.21</time>
   <energy>
    <i name="e_fr_energy">     -6.94509494 </i>
    <i name="e_wo_entrp">     -6.93596143 </i>
    <i name="e_0_energy">     -6.94205044 </i>
   </energy>
  </scstep>
  <scstep>
   <time name="dav">    0.06    0.06</time>
   <time name="total">    0.17    0.18</time>
   <energy>
    <i name="alphaZ">      8.03278073 </i>
    <i name="ewald">   -117.99630448 </i>
    <i name="hartreedc">     -0.22727489 </i>
    <i name="XCdc">   -190.36804046 </i>
    <i name="pawpsdc">    234.87668766 </i>
    <i name="pawaedc">    -31.79247482 </i>
    <i name="eentropy">     -0.00913327 </i>
    <i name="bandstr">     -0.58138835 </i>
    <i name="atom">     91.12005295 </i>
    <i name="e_fr_energy">     -6.94509491 </i>
    <i name="e_wo_entrp">     -6.93596165 </i>
    <i name="e_0_energy">     -6.94205049 </i>
   </energy>
  </scstep>
  <structure>
   <crystal>
    <varray name="basis" >
     <v>       1.56638907      -2.71306598      -0.00000000 </v>
     <v>       1.56638907       2.71306598       0.00000000 </v>
     <v>       0.00000000      -0.00000000      10.54706668 </v>
    </varray>
    <i name="volume">     89.64409512 </i>
    <varray name="rec_basis" >
     <v>       0.31920550      -0.18429334      -0.00000000 </v>
     <v>       0.31920550       0.18429334       0.00000000 </v>
     <v>       0.00000000      -0.00000000       0.09481309 </v>
    </varray>
   </crystal>
   <varray name="positions" >
    <v>      -0.00000000       0.00000000       0.00000000 </v>
    <v>       0.33333300       0.66666700       0.25000000 </v>
    <v>      -0.00000000       0.00000000       0.50000000 </v>
    <v>       0.66666700       0.33333300       0.75000000 </v>
   </varray>
  </structure>
  <varray name="forces" >
   <v>      -0.00000000      -0.00000000      -0.00000000 </v>
   <v>      -0.00000000       0.00000000       0.00000000 </v>
   <v>      -0.00000000      -0.00000000      -0.00000000 </v>
   <v>       0.00000000      -0.00000000      -0.00000000 </v>
  </varray>
  <varray name="stress" >
   <v>       2.62006638      -0.00000000       0.00000000 </v>
   <v>      -0.00000000       2.62006739       0.00000000 </v>
   <v>      -0.00000000      -0.00000000       6.51538517 </v>
  </varray>
  <energy>
   <i name="e_fr_energy">     -6.94509491 </i>
   <i name="e_wo_entrp">     -6.93596165 </i>
   <i name="e_0_energy">     -6.94205049 </i>
  </energy>
  <time name="totalsc">    1.14    1.18</time>
 </calculation>
 <calculation>
  <scstep>
   <time name="dav">    0.09    0.09</time>
   <time name="total">    0.21    0.21</time>
   <energy>
    <i name="alphaZ">      8.03974162 </i>
    <i name="ewald">   -118.02869327 </i>
    <i name="hartreedc">     -0.22731949 </i>
    <i name="XCdc">   -190.36527988 </i>
    <i name="pawpsdc">    234.87603397 </i>
    <i name="pawaedc">    -31.79181637 </i>
    <i name="eentropy">     -0.00941693 </i>
    <i name="bandstr">     -0.55841719 </i>
    <i name="atom">     91.12005295 </i>
    <i name="e_fr_energy">     -6.94511458 </i>
    <i name="e_wo_entrp">     -6.93569765 </i>
    <i name="e_0_energy">     -6.94197561 </i>
   </energy>
  </scstep>
  <scstep>
   <time name="dav">    0.08    0.08</time>
   <time name="total">    0.20    0.20</time>
   <energy>
    <i name="e_fr_energy">     -6.94511134 </i>
    <i name="e_wo_entrp">     -6.93569436 </i>
    <i name="e_0_energy">     -6.94197234 </i>
   </energy>
  </scstep>
  <scstep>
   <time name="dav">    0.08    0.08</time>
   <time name="total">    0.20    0.20</time>
   <energy>
    <i name="e_fr_energy">     -6.94510954 </i>
    <i name="e_wo_entrp">     -6.93569289 </i>
    <i name="e_0_energy">     -6.94197066 </i>
   </energy>
  </scstep>
  <scstep>
   <time name="dav">    0.05    0.05</time>
   <time name="total">    0.16    0.16</time>
   <energy>
    <i name="alphaZ">      8.03974162 </i>
    <i name="ewald">   -118.02869327 </i>
    <i name="hartreedc">     -0.22827786 </i>
    <i name="XCdc">   -190.36454994 </i>
    <i name="pawpsdc">    234.91306852 </i>
    <i name="pawaedc">    -31.82915009 </i>
    <i name="eentropy">     -0.00941651 </i>
    <i name="bandstr">     -0.55788495 </i>
    <i name="atom">     91.12005295 </i>
    <i name="e_fr_energy">     -6.94510953 </i>
    <i name="e_wo_entrp">     -6.93569302 </i>
    <i name="e_0_energy">     -6.94197069 </i>
   </energy>
  </scstep>
  <structure>
   <crystal>
    <varray name="basis" >
     <v>       1.56510401      -2.71084018      -0.00000000 </v>
     <v>       1.56510401       2.71084018       0.00000000 </v>
     <v>       0.00000000      -0.00000000      10.55524683 </v>
    </varray>
    <i name="volume">     89.56648036 </i>
    <varray name="rec_basis" >
     <v>       0.31946759      -0.18444466      -0.00000000 </v>
     <v>       0.31946759       0.18444466       0.00000000 </v>
     <v>       0.00000000      -0.00000000       0.09473961 </v>
    </varray>
   </crystal>
   <varray name="positions" >
    <v>      -0.00000000       0.00000000       0.00000000 </v>
    <v>       0.33333300       0.66666700       0.25000000 </v>
    <v>      -0.00000000       0.00000000       0.50000000 </v>
    <v>       0.66666700       0.33333300       0.75000000 </v>
   </varray>
  </structure>
  <varray name="forces" >
   <v>      -0.00000000      -0.00000000      -0.00000000 </v>
   <v>       0.00000000       0.00000000      -0.00000000 </v>
   <v>      -0.00000000       0.00000000      -0.00000000 </v>
   <v>       0.00000000      -0.00000000       0.00000000 </v>
  </varray>
  <varray name="stress" >
   <v>       3.23199537       0.00000000      -0.00000000 </v>
   <v>       0.00000000       3.23199660      -0.00000000 </v>
   <v>       0.00000000       0.00000000       6.52650865 </v>
  </varray>
  <energy>
   <i name="e_fr_energy">     -6.94510953 </i>
   <i name="e_wo_entrp">     -6.93569302 </i>
   <i name="e_0_energy">     -6.94197069 </i>
  </energy>
  <time name="totalsc">    1.11    1.13</time>
 </calculation>
 <calculation>
  <scstep>
   <time name="dav">    0.09    0.09</time>
   <time name="total">    0.21    0.21</time>
   <energy>
    <i name="alphaZ">      7.96107034 </i>
    <i name="ewald">   -117.63613766 </i>
    <i name="hartreedc">     -0.22738978 </i>
    <i name="XCdc">   -190.39586669 </i>
    <i name="pawpsdc">    234.91280471 </i>
    <i name="pawaedc">    -31.82888425 </i>
    <i name="eentropy">     -0.00961300 </i>
    <i name="bandstr">     -0.84317020 </i>
    <i name="atom">     91.12005295 </i>
    <i name="e_fr_energy">     -6.94713357 </i>
    <i name="e_wo_entrp">     -6.93752057 </i>
    <i name="e_0_energy">     -6.94392923 </i>
   </energy>
  </scstep>
  <scstep>
   <time name="dav">    0.07    0.07</time>
   <time name="total">    0.19    0.20</time>
   <energy>
    <i name="e_fr_energy">     -6.94706857 </i>
    <i name="e_wo_entrp">     -6.93742935 </i>
    <i name="e_0_energy">     -6.94385549 </i>
   </energy>
  </scstep>
  <scstep>
   <time name="dav">    0.08    0.08</time>
   <time name="total">    0.20    0.20</time>
   <energy>
    <i name="e_fr_energy">     -6.94702277 </i>
    <i name="e_wo_entrp">     -6.93734454 </i>
    <i name="e_0_energy">     -6.94379670 </i>
   </energy>
  </scstep>
  <scstep>
   <time name="dav">    0.06    0.06</time>
   <time name="total">    0.18    0.18</time>
   <energy>
    <i name="alphaZ">      7.96107034 </i>
    <i name="ewald">   -117.63613766 </i>
    <i name="hartreedc">     -0.22467251 </i>
    <i name="XCdc">   -190.40215990 </i>
    <i name="pawpsdc">    234.55740698 </i>
    <i name="pawaedc">    -31.47104634 </i>
    <i name="eentropy">     -0.00967784 </i>
    <i name="bandstr">     -0.84185872 </i>
    <i name="atom">     91.12005295 </i>
    <i name="e_fr_energy">     -6.94702270 </i>
    <i name="e_wo_entrp">     -6.93734487 </i>
    <i name="e_0_energy">     -6.94379676 </i>
   </energy>
  </scstep>
  <structure>
   <crystal>
    <varray name="basis" >
     <v>       1.56744574      -2.71489619      -0.00000000 </v>
     <v>       1.56744574       2.71489619       0.00000000 </v>
     <v>      -0.00000000      -0.00000000      10.62772720 </v>
    </varray>
    <i name="volume">     90.45157612 </i>
    <varray name="rec_basis" >
     <v>       0.31899031      -0.18416910      -0.00000000 </v>
     <v>       0.31899031       0.18416910       0.00000000 </v>
     <v>       0.00000000      -0.00000000       0.09409350 </v>
    </varray>
   </crystal>
   <varray name="positions" >
    <v>      -0.00000000       0.00000000       0.00000000 </v>
    <v>       0.33333300       0.66666700       0.25000000 </v>
    <v>      -0.00000000       0.00000000       0.50000000 </v>
    <v>       0.66666700       0.33333300       0.75000000 </v>
   </varray>
  </structure>
  <varray name="forces" >
   <v>      -0.00000000      -0.00000000      -0.00000000 </v>
   <v>       0.00000000       0.00000000      -0.00000000 </v>
   <v>      -0.00000000      -0.00000000      -0.00000000 </v>
   <v>      -0.00000000      -0.00000000       0.00000000 </v>
  </varray>
  <varray name="stress" >
   <v>      -0.03469032       0.00000000       0.00000000 </v>
   <v>       0.00000000      -0.03469033      -0.00000000 </v>
   <v>      -0.00000000       0.00000000       2.11895869 </v>
  </varray>
  <energy>
   <i name="e_fr_energy">     -6.94702270 </i>
   <i name="e_wo_entrp">     -6.93734487 </i>
   <i name="e_0_energy">     -6.94379676 </i>
  </energy>
  <time name="totalsc">    1.12    1.15</time>
 </calculation>
 <calculation>
  <scstep>
   <time name="dav">    0.09    0.09</time>
   <time name="total">    0.21    0.21</time>
   <energy>
    <i name="alphaZ">      7.93059123 </i>
    <i name="ewald">   -117.48308129 </i>
    <i name="hartreedc">     -0.22414768 </i>
    <i name="XCdc">   -190.41461994 </i>
    <i name="pawpsdc">    234.56273477 </i>
    <i name="pawaedc">    -31.47638314 </i>
    <i name="eentropy">     -0.00944059 </i>
    <i name="bandstr">     -0.95289333 </i>
    <i name="atom">     91.12005295 </i>
    <i name="e_fr_energy">     -6.94718701 </i>
    <i name="e_wo_entrp">     -6.93774642 </i>
    <i name="e_0_energy">     -6.94404015 </i>
   </energy>
  </scstep>
  <scstep>
   <time name="dav">    0.07    0.07</time>
   <time name="total">    0.19    0.20</time>
   <energy>
    <i name="e_fr_energy">     -6.94717668 </i>
    <i name="e_wo_entrp">     -6.93772268 </i>
    <i name="e_0_energy">     -6.94402535 </i>
   </energy>
  </scstep>
  <scstep>
   <time name="dav">    0.07    0.07</time>
   <time name="total">    0.19    0.19</time>
   <energy>
    <i name="e_fr_energy">     -6.94716897 </i>
    <i name="e_wo_entrp">     -6.93769434 </i>
    <i name="e_0_energy">     -6.94401076 </i>
   </energy>
  </scstep>
  <scstep>
   <time name="dav">    0.05    0.05</time>
   <time name="total">    0.16    0.16</time>
   <energy>
    <i name="alphaZ">      7.93059123 </i>
    <i name="ewald">   -117.48308129 </i>
    <i name="hartreedc">     -0.22318813 </i>
    <i name="XCdc">   -190.41712553 </i>
    <i name="pawpsdc">    234.42917947 </i>
    <i name="pawaedc">    -31.34189452 </i>
    <i name="eentropy">     -0.00947446 </i>
    <i name="bandstr">     -0.95222868 </i>
    <i name="atom">     91.12005295 </i>
    <i name="e_fr_energy">     -6.94716896 </i>
    <i name="e_wo_entrp">     -6.93769449 </i>
    <i name="e_0_energy">     -6.94401080 </i>
   </energy>
  </scstep>
  <structure>
   <crystal>
    <varray name="basis" >
     <v>       1.56836253      -2.71648411      -0.00000000 </v>
     <v>       1.56836253       2.71648411       0.00000000 </v>
     <v>      -0.00000000      -0.00000000      10.65610309 </v>
    </varray>
    <i name="volume">     90.79920263 </i>
    <varray name="rec_basis" >
     <v>       0.31880384      -0.18406145      -0.00000000 </v>
     <v>       0.31880384       0.18406145       0.00000000 </v>
     <v>       0.00000000      -0.00000000       0.09384294 </v>
    </varray>
   </crystal>
   <varray name="positions" >
    <v>      -0.00000000       0.00000000       0.00000000 </v>
    <v>       0.33333300       0.66666700       0.25000000 </v>
    <v>      -0.00000000       0.00000000       0.50000000 </v>
    <v>       0.66666700       0.33333300       0.75000000 </v>
   </varray>
  </structure>
  <varray name="forces" >
   <v>       0.00000000      -0.00000000       0.00000000 </v>
   <v>       0.00000000       0.00000000       0.00000000 </v>
   <v>       0.00000000       0.00000000       0.00000000 </v>
   <v>      -0.00000000      -0.00000000      -0.00000000 </v>
  </varray>
  <varray name="stress" >
   <v>      -1.27004560       0.00000000      -0.00000000 </v>
   <v>       0.00000000      -1.27004609       0.00000000 </v>
   <v>       0.00000000      -0.00000000       0.41156951 </v>
  </varray>
  <energy>
   <i name="e_fr_energy">     -6.94716896 </i>
   <i name="e_wo_entrp">     -6.93769449 </i>
   <i name="e_0_energy">     -6.94401080 </i>
  </energy>
  <time name="totalsc">    1.09    1.11</time>
 </calculation>
 <calculation>
  <scstep>
   <time name="dav">    0.09    0.09</time>
   <time name="total">    0.21    0.21</time>
   <energy>
    <i name="alphaZ">      7.93251869 </i>
    <i name="ewald">   -117.49277658 </i>
    <i name="hartreedc">     -0.22314363 </i>
    <i name="XCdc">   -190.41645565 </i>
    <i name="pawpsdc">    234.43123818 </i>
    <i name="pawaedc">    -31.34395628 </i>
    <i name="eentropy">     -0.00949377 </i>
    <i name="bandstr">     -0.94515367 </i>
    <i name="atom">     91.12005295 </i>
    <i name="e_fr_energy">     -6.94716975 </i>
    <i name="e_wo_entrp">     -6.93767599 </i>
    <i name="e_0_energy">     -6.94400516 </i>
   </energy>
  </scstep>
  <scstep>
   <time name="dav">    0.04    0.04</time>
   <time name="total">    0.15    0.15</time>
   <energy>
    <i name="alphaZ">      7.93251869 </i>
    <i name="ewald">   -117.49277658 </i>
    <i name="hartreedc">     -0.22315678 </i>
    <i name="XCdc">   -190.41640984 </i>
    <i name="pawpsdc">    234.43511873 </i>
    <i name="pawaedc">    -31.34785919 </i>
    <i name="eentropy">     -0.00949298 </i>
    <i name="bandstr">     -0.94516477 </i>
    <i name="atom">     91.12005295 </i>
    <i name="e_fr_energy">     -6.94716976 </i>
    <i name="e_wo_entrp">     -6.93767678 </i>
    <i name="e_0_energy">     -6.94400544 </i>
   </energy>
  </scstep>
  <structure>
   <crystal>
    <varray name="basis" >
     <v>       1.56830439      -2.71638341      -0.00000000 </v>
     <v>       1.56830439       2.71638341       0.00000000 </v>
     <v>      -0.00000000      -0.00000000      10.65430370 </v>
    </varray>
    <i name="volume">     90.77714007 </i>
    <varray name="rec_basis" >
     <v>       0.31881566      -0.18406827      -0.00000000 </v>
     <v>       0.31881566       0.18406827       0.00000000 </v>
     <v>       0.00000000      -0.00000000       0.09385878 </v>
    </varray>
   </crystal>
   <varray name="positions" >
    <v>      -0.00000000       0.00000000       0.00000000 </v>
    <v>       0.33333300       0.66666700       0.25000000 </v>
    <v>      -0.00000000       0.00000000       0.50000000 </v>
    <v>       0.66666700       0.33333300       0.75000000 </v>
   </varray>
  </structure>
  <varray name="forces" >
   <v>       0.00000000      -0.00000000      -0.00000000 </v>
   <v>       0.00000000       0.00000000      -0.00000000 </v>
   <v>       0.00000000      -0.00000000      -0.00000000 </v>
   <v>      -0.00000000      -0.00000000       0.00000000 </v>
  </varray>
  <varray name="stress" >
   <v>      -1.19576288       0.00000000      -0.00000000 </v>
   <v>       0.00000000      -1.19576334      -0.00000000 </v>
   <v>       0.00000000       0.00000000       0.51005142 </v>
  </varray>
  <energy>
   <i name="e_fr_energy">     -6.94716976 </i>
   <i name="e_wo_entrp">     -6.93767678 </i>
   <i name="e_0_energy">     -6.94400544 </i>
  </energy>
  <time name="totalsc">    0.70    0.71</time>
 </calculation>
 <calculation>
  <scstep>
   <time name="dav">    0.09    0.09</time>
   <time name="total">    0.21    0.21</time>
   <energy>
    <i name="alphaZ">      7.93633895 </i>
    <i name="ewald">   -117.50844512 </i>
    <i name="hartreedc">     -0.22314539 </i>
    <i name="XCdc">   -190.41484493 </i>
    <i name="pawpsdc">    234.43983240 </i>
    <i name="pawaedc">    -31.35260822 </i>
    <i name="eentropy">     -0.00908930 </i>
    <i name="bandstr">     -0.93539542 </i>
    <i name="atom">     91.12005295 </i>
    <i name="e_fr_energy">     -6.94730409 </i>
    <i name="e_wo_entrp">     -6.93821479 </i>
    <i name="e_0_energy">     -6.94427433 </i>
   </energy>
  </scstep>
  <scstep>
   <time name="dav">    0.07    0.07</time>
   <time name="total">    0.20    0.20</time>
   <energy>
    <i name="e_fr_energy">     -6.94729712 </i>
    <i name="e_wo_entrp">     -6.93819147 </i>
    <i name="e_0_energy">     -6.94426191 </i>
   </energy>
  </scstep>
  <scstep>
   <time name="dav">    0.08    0.08</time>
   <time name="total">    0.20    0.20</time>
   <energy>
    <i name="e_fr_energy">     -6.94729299 </i>
    <i name="e_wo_entrp">     -6.93816290 </i>
    <i name="e_0_energy">     -6.94424963 </i>
   </energy>
  </scstep>
  <scstep>
   <time name="dav">    0.05    0.05</time>
   <time name="total">    0.16    0.16</time>
   <energy>
    <i name="alphaZ">      7.93633895 </i>
    <i name="ewald">   -117.50844512 </i>
    <i name="hartreedc">     -0.22438715 </i>
    <i name="XCdc">   -190.41430953 </i>
    <i name="pawpsdc">    234.46926784 </i>
    <i name="pawaedc">    -31.38228101 </i>
    <i name="eentropy">     -0.00912969 </i>
    <i name="bandstr">     -0.93440021 </i>
    <i name="atom">     91.12005295 </i>
    <i name="e_fr_energy">     -6.94729298 </i>
    <i name="e_wo_entrp">     -6.93816329 </i>
    <i name="e_0_energy">     -6.94424975 </i>
   </energy>
  </scstep>
  <structure>
   <crystal>
    <varray name="basis" >
     <v>       1.56685693      -2.71387632      -0.00000000 </v>
     <v>       1.56685693       2.71387632      -0.00000000 </v>
     <v>       0.00000000      -0.00000000      10.66885969 </v>
    </varray>
    <i name="volume">     90.73344333 </i>
    <varray name="rec_basis" >
     <v>       0.31911018      -0.18423831      -0.00000000 </v>
     <v>       0.31911018       0.18423831       0.00000000 </v>
     <v>       0.00000000      -0.00000000       0.09373073 </v>
    </varray>
   </crystal>
   <varray name="positions" >
    <v>      -0.00000000       0.00000000       0.00000000 </v>
    <v>       0.33333300       0.66666700       0.25000000 </v>
    <v>      -0.00000000       0.00000000       0.50000000 </v>
    <v>       0.66666700       0.33333300       0.75000000 </v>
   </varray>
  </structure>
  <varray name="forces" >
   <v>      -0.00000000      -0.00000000       0.00000000 </v>
   <v>       0.00000000      -0.00000000      -0.00000000 </v>
   <v>      -0.00000000      -0.00000000       0.00000000 </v>
   <v>       0.00000000       0.00000000       0.00000000 </v>
  </varray>
  <varray name="stress" >
   <v>      -0.60619837      -0.00000000       0.00000000 </v>
   <v>       0.00000000      -0.60619860       0.00000000 </v>
   <v>       0.00000000      -0.00000000       0.18859532 </v>
  </varray>
  <energy>
   <i name="e_fr_energy">     -6.94729298 </i>
   <i name="e_wo_entrp">     -6.93816329 </i>
   <i name="e_0_energy">     -6.94424975 </i>
  </energy>
  <time name="totalsc">    1.11    1.13</time>
  <eigenvalues>
   <array>
    <dimension dim="1">band</dimension>
    <dimension dim="2">kpoint</dimension>
    <dimension dim="3">spin</dimension>
    <field>eigene</field>
    <field>occ</field>
    <set>
     <set comment="spin 1">
      <set comment="kpoint 1">
       <r>   -4.3274    1.0000 </r>
       <r>   -3.0124    1.0000 </r>
       <r>   -3.0083    1.0000 </r>
       <r>    0.7148    1.0000 </r>
       <r>    0.9818    1.0000 </r>
       <r>    7.0093   -0.0000 </r>
       <r>    7.0137   -0.0000 </r>
       <r>   14.1902    0.0000 </r>
       <r>   14.1902    0.0000 </r>
       <r>   14.1996    0.0000 </r>
       <r>   14.3210    0.0000 </r>
       <r>   14.3210    0.0000 </r>
      </set>
      <set comment="kpoint 2">
       <r>   -3.9101    1.0000 </r>
       <r>   -2.6007    1.0000 </r>
       <r>   -2.5967    1.0000 </r>
       <r>    1.0977    1.0000 </r>
       <r>    1.3878    1.0000 </r>
       <r>    7.3333   -0.0000 </r>
       <r>    7.3532   -0.0000 </r>
       <r>   10.0432    0.0000 </r>
       <r>   11.0457    0.0000 </r>
       <r>   11.1305    0.0000 </r>
       <r>   12.2187    0.0000 </r>
       <r>   12.8888    0.0000 </r>
      </set>
      <set comment="kpoint 3">
       <r>   -2.6694    1.0000 </r>
       <r>   -1.3772    1.0000 </r>
       <r>   -1.3736    1.0000 </r>
       <r>    2.2474    1.0129 </r>
       <r>    2.5462    0.7746 </r>
       <r>    5.7566   -0.0000 </r>
       <r>    6.7953   -0.0000 </r>
       <r>    6.9444   -0.0000 </r>
       <r>    8.5859    0.0000 </r>
       <r>    8.6665    0.0000 </r>
       <r>   10.1823    0.0000 </r>
       <r>   10.3568    0.0000 </r>
      </set>
      <set comment="kpoint 4">
       <r>   -0.6401    1.0000 </r>
       <r>    0.6119    1.0000 </r>
       <r>    0.6129    1.0000 </r>
       <r>    2.0996    1.0008 </r>
       <r>    3.3745   -0.0000 </r>
       <r>    3.4270   -0.0000 </r>
       <r>    4.2004   -0.0000 </r>
       <r>    4.8208   -0.0000 </r>
       <r>    6.8878   -0.0000 </r>
       <r>    7.2693   -0.0000 </r>
       <r>    9.9918    0.0000 </r>
       <r>   10.1498    0.0000 </r>
      </set>
      <set comment="kpoint 5">
       <r>   -3.0811    1.0000 </r>
       <r>   -1.7831    1.0000 </r>
       <r>   -1.7793    1.0000 </r>
       <r>    1.8641    1.0000 </r>
       <r>    2.1766    1.0041 </r>
       <r>    7.4802   -0.0000 </r>
       <r>    7.8841   -0.0000 </r>
       <r>    8.1335    0.0000 </r>
       <r>    8.4371    0.0000 </r>
       <r>    8.7887    0.0000 </r>
       <r>    9.1691    0.0000 </r>
       <r>    9.7754    0.0000 </r>
      </set>
      <set comment="kpoint 6">
       <r>   -1.4457    1.0000 </r>
       <r>   -0.1728    1.0000 </r>
       <r>   -0.1697    1.0000 </r>
       <r>    3.3945   -0.0000 </r>
       <r>    3.4054   -0.0000 </r>
       <r>    4.4459   -0.0000 </r>
       <r>    5.3336   -0.0000 </r>
       <r>    5.4099   -0.0000 </r>
       <r>    6.8637   -0.0000 </r>
       <r>    7.9749   -0.0000 </r>
       <r>    8.2492    0.0000 </r>
       <r>    8.8479    0.0000 </r>
      </set>
      <set comment="kpoint 7">
       <r>    0.9168    1.0000 </r>
       <r>    0.9611    1.0000 </r>
       <r>    1.8932    1.0000 </r>
       <r>    1.9485    1.0000 </r>
       <r>    2.5102    0.8843 </r>
       <r>    2.5594    0.7276 </r>
       <r>    5.6467   -0.0000 </r>
       <r>    5.6889   -0.0000 </r>
       <r>    5.8015   -0.0000 </r>
       <r>    5.9343   -0.0000 </r>
       <r>    7.5246   -0.0000 </r>
       <r>    7.7418   -0.0000 </r>
      </set>
      <set comment="kpoint 8">
       <r>    0.5528    1.0000 </r>
       <r>    1.7675    1.0000 </r>
       <r>    1.7714    1.0000 </r>
       <r>    3.2116   -0.0001 </r>
       <r>    3.2636   -0.0000 </r>
       <r>    4.1520   -0.0000 </r>
       <r>    4.3549   -0.0000 </r>
       <r>    4.6452   -0.0000 </r>
       <r>    5.1506   -0.0000 </r>
       <r>    5.3678   -0.0000 </r>
       <r>    6.5457   -0.0000 </r>
       <r>    7.9554   -0.0000 </r>
      </set>
      <set comment="kpoint 9">
       <r>   -3.9964    1.0000 </r>
       <r>   -3.9964    1.0000 </r>
       <r>   -1.3884    1.0000 </r>
       <r>   -1.3884    1.0000 </r>
       <r>    3.6626   -0.0000 </r>
       <r>    3.6626   -0.0000 </r>
       <r>   10.8295    0.0000 </r>
       <r>   10.8295    0.0000 </r>
       <r>   14.3575    0.0000 </r>
       <r>   14.3575    0.0000 </r>
       <r>   14.3575    0.0000 </r>
       <r>   14.3575    0.0000 </r>
      </set>
      <set comment="kpoint 10">
       <r>   -3.5805    1.0000 </r>
       <r>   -3.5805    1.0000 </r>
       <r>   -0.9841    1.0000 </r>
       <r>   -0.9841    1.0000 </r>
       <r>    4.0397   -0.0000 </r>
       <r>    4.0397   -0.0000 </r>
       <r>   10.1550    0.0000 </r>
       <r>   10.1550    0.0000 </r>
       <r>   11.2656    0.0000 </r>
       <r>   11.2656    0.0000 </r>
       <r>   12.3017    0.0000 </r>
       <r>   12.3017    0.0000 </r>
      </set>
      <set comment="kpoint 11">
       <r>   -2.3442    1.0000 </r>
       <r>   -2.3442    1.0000 </r>
       <r>    0.2153    1.0000 </r>
       <r>    0.2153    1.0000 </r>
       <r>    5.0020   -0.0000 </r>
       <r>    5.0020   -0.0000 </r>
       <r>    6.2766   -0.0000 </r>
       <r>    6.2766   -0.0000 </r>
       <r>    8.3872    0.0000 </r>
       <r>    8.3872    0.0000 </r>
       <r>   11.1147    0.0000 </r>
       <r>   11.1147    0.0000 </r>
      </set>
      <set comment="kpoint 12">
       <r>   -0.3236    1.0000 </r>
       <r>   -0.3236    1.0000 </r>
       <r>    1.9926    1.0000 </r>
       <r>    1.9926    1.0000 </r>
       <r>    2.6864    0.2199 </r>
       <r>    2.6864    0.2199 </r>
       <r>    4.9859   -0.0000 </r>
       <r>    4.9859   -0.0000 </r>
       <r>    7.1702   -0.0000 </r>
       <r>    7.1702   -0.0000 </r>
       <r>    9.5278    0.0000 </r>
       <r>    9.5278    0.0000 </r>
      </set>
      <set comment="kpoint 13">
       <r>   -2.7544    1.0000 </r>
       <r>   -2.7544    1.0000 </r>
       <r>   -0.1819    1.0000 </r>
       <r>   -0.1819    1.0000 </r>
       <r>    4.7612   -0.0000 </r>
       <r>    4.7612   -0.0000 </r>
       <r>    8.0998    0.0000 </r>
       <r>    8.0998    0.0000 </r>
       <r>    8.6189    0.0000 </r>
       <r>    8.6189    0.0000 </r>
       <r>   10.6442    0.0000 </r>
       <r>   10.6442    0.0000 </r>
      </set>
      <set comment="kpoint 14">
       <r>   -1.1251    1.0000 </r>
       <r>   -1.1251    1.0000 </r>
       <r>    1.3861    1.0000 </r>
       <r>    1.3861    1.0000 </r>
       <r>    4.3856   -0.0000 </r>
       <r>    4.3856   -0.0000 </r>
       <r>    6.2443   -0.0000 </r>
       <r>    6.2443   -0.0000 </r>
       <r>    6.6471   -0.0000 </r>
       <r>    6.6471   -0.0000 </r>
       <r>    7.8996   -0.0000 </r>
       <r>    7.8996   -0.0000 </r>
      </set>
      <set comment="kpoint 15">
       <r>    1.1668    1.0000 </r>
       <r>    1.1668    1.0000 </r>
       <r>    1.3303    1.0000 </r>
       <r>    1.3303    1.0000 </r>
       <r>    3.5903   -0.0000 </r>
       <r>    3.5903   -0.0000 </r>
       <r>    4.0268   -0.0000 </r>
       <r>    4.0268   -0.0000 </r>
       <r>    6.6988   -0.0000 </r>
       <r>    6.6988   -0.0000 </r>
       <r>    8.4805    0.0000 </r>
       <r>    8.4805    0.0000 </r>
      </set>
      <set comment="kpoint 16">
       <r>    0.8624    1.0000 </r>
       <r>    0.8624    1.0000 </r>
       <r>    3.0387   -0.0054 </r>
       <r>    3.0387   -0.0054 </r>
       <r>    3.5127   -0.0000 </r>
       <r>    3.5127   -0.0000 </r>
       <r>    4.0199   -0.0000 </r>
       <r>    4.0199   -0.0000 </r>
       <r>    5.9851   -0.0000 </r>
       <r>    5.9851   -0.0000 </r>
       <r>    6.6046   -0.0000 </r>
       <r>    6.6046   -0.0000 </r>
      </set>
     </set>
    </set>
   </array>
  </eigenvalues>
  <separator name="orbital magnetization" >
   <v name="MAGDIPOLOUT">      0.00000000      0.00000000      0.00000000</v>
  </separator>
  <dos>
   <i name="efermi">      2.61554758 </i>
   <total>
    <array>
     <dimension dim="1">gridpoints</dimension>
     <dimension dim="2">spin</dimension>
     <field>energy</field>
     <field>total</field>
     <field>integrated</field>
     <set>
      <set comment="spin 1">
       <r>    -6.3274     0.0000     0.0000 </r>
       <r>    -6.3160     0.0000     0.0000 </r>
       <r>    -6.3047     0.0000     0.0000 </r>
       <r>    -6.2933     0.0000     0.0000 </r>
       <r>    -6.2820     0.0000     0.0000 </r>
       <r>    -6.2706     0.0000     0.0000 </r>
       <r>    -6.2593     0.0000     0.0000 </r>
       <r>    -6.2479     0.0000     0.0000 </r>
       <r>    -6.2366     0.0000     0.0000 </r>
       <r>    -6.2252     0.0000     0.0000 </r>
       <r>    -6.2139     0.0000     0.0000 </r>
       <r>    -6.2025     0.0000     0.0000 </r>
       <r>    -6.1912     0.0000     0.0000 </r>
       <r>    -6.1798     0.0000     0.0000 </r>
       <r>    -6.1685     0.0000     0.0000 </r>
       <r>    -6.1571     0.0000     0.0000 </r>
       <r>    -6.1458     0.0000     0.0000 </r>
       <r>    -6.1345     0.0000     0.0000 </r>
       <r>    -6.1231     0.0000     0.0000 </r>
       <r>    -6.1118     0.0000     0.0000 </r>
       <r>    -6.1004     0.0000     0.0000 </r>
       <r>    -6.0891     0.0000     0.0000 </r>
       <r>    -6.0777     0.0000     0.0000 </r>
       <r>    -6.0664     0.0000     0.0000 </r>
       <r>    -6.0550     0.0000     0.0000 </r>
       <r>    -6.0437     0.0000     0.0000 </r>
       <r>    -6.0323     0.0000     0.0000 </r>
       <r>    -6.0210     0.0000     0.0000 </r>
       <r>    -6.0096     0.0000     0.0000 </r>
       <r>    -5.9983     0.0000     0.0000 </r>
       <r>    -5.9869     0.0000     0.0000 </r>
       <r>    -5.9756     0.0000     0.0000 </r>
       <r>    -5.9642     0.0000     0.0000 </r>
       <r>    -5.9529     0.0000     0.0000 </r>
       <r>    -5.9415     0.0000     0.0000 </r>
       <r>    -5.9302    -0.0000    -0.0000 </r>
       <r>    -5.9188    -0.0000    -0.0000 </r>
       <r>    -5.9075    -0.0000    -0.0000 </r>
       <r>    -5.8961    -0.0000    -0.0000 </r>
       <r>    -5.8848    -0.0000    -0.0000 </r>
       <r>    -5.8734    -0.0000    -0.0000 </r>
       <r>    -5.8621    -0.0000    -0.0000 </r>
       <r>    -5.8508    -0.0000    -0.0000 </r>
       <r>    -5.8394    -0.0000    -0.0000 </r>
       <r>    -5.8281    -0.0000    -0.0000 </r>
       <r>    -5.8167    -0.0000    -0.0000 </r>
       <r>    -5.8054    -0.0000    -0.0000 </r>
       <r>    -5.7940    -0.0000    -0.0000 </r>
       <r>    -5.7827    -0.0000    -0.0000 </r>
       <r>    -5.7713    -0.0000    -0.0000 </r>
       <r>    -5.7600    -0.0000    -0.0000 </r>
       <r>    -5.7486    -0.0000    -0.0000 </r>
       <r>    -5.7373    -0.0000    -0.0000 </r>
       <r>    -5.7259    -0.0000    -0.0000 </r>
       <r>    -5.7146    -0.0000    -0.0000 </r>
       <r>    -5.7032    -0.0000    -0.0000 </r>
       <r>    -5.6919    -0.0000    -0.0000 </r>
       <r>    -5.6805    -0.0000    -0.0000 </r>
       <r>    -5.6692    -0.0000    -0.0000 </r>
       <r>    -5.6578    -0.0000    -0.0000 </r>
       <r>    -5.6465    -0.0000    -0.0000 </r>
       <r>    -5.6351    -0.0000    -0.0000 </r>
       <r>    -5.6238    -0.0000    -0.0000 </r>
       <r>    -5.6124    -0.0000    -0.0000 </r>
       <r>    -5.6011    -0.0000    -0.0000 </r>
       <r>    -5.5897    -0.0000    -0.0000 </r>
       <r>    -5.5784    -0.0000    -0.0000 </r>
       <r>    -5.5670    -0.0000    -0.0000 </r>
       <r>    -5.5557    -0.0000    -0.0000 </r>
       <r>    -5.5444    -0.0000    -0.0000 </r>
       <r>    -5.5330    -0.0000    -0.0000 </r>
       <r>    -5.5217    -0.0000    -0.0000 </r>
       <r>    -5.5103    -0.0000    -0.0000 </r>
       <r>    -5.4990    -0.0000    -0.0000 </r>
       <r>    -5.4876    -0.0000    -0.0000 </r>
       <r>    -5.4763    -0.0000    -0.0000 </r>
       <r>    -5.4649    -0.0000    -0.0000 </r>
       <r>    -5.4536    -0.0000    -0.0000 </r>
       <r>    -5.4422    -0.0000    -0.0000 </r>
       <r>    -5.4309    -0.0000    -0.0000 </r>
       <r>    -5.4195    -0.0000    -0.0000 </r>
       <r>    -5.4082    -0.0000    -0.0000 </r>
       <r>    -5.3968    -0.0000    -0.0000 </r>
       <r>    -5.3855    -0.0000    -0.0000 </r>
       <r>    -5.3741    -0.0000    -0.0000 </r>
       <r>    -5.3628    -0.0000    -0.0000 </r>
       <r>    -5.3514    -0.0000    -0.0000 </r>
       <r>    -5.3401    -0.0000    -0.0000 </r>
       <r>    -5.3287    -0.0000    -0.0000 </r>
       <r>    -5.3174    -0.0000    -0.0000 </r>
       <r>    -5.3060    -0.0000    -0.0000 </r>
       <r>    -5.2947    -0.0000    -0.0000 </r>
       <r>    -5.2833    -0.0000    -0.0000 </r>
       <r>    -5.2720    -0.0000    -0.0000 </r>
       <r>    -5.2606    -0.0000    -0.0000 </r>
       <r>    -5.2493    -0.0000    -0.0000 </r>
       <r>    -5.2380    -0.0000    -0.0000 </r>
       <r>    -5.2266    -0.0000    -0.0000 </r>
       <r>    -5.2153    -0.0000    -0.0000 </r>
       <r>    -5.2039    -0.0000    -0.0000 </r>
       <r>    -5.1926    -0.0000    -0.0000 </r>
       <r>    -5.1812    -0.0000    -0.0000 </r>
       <r>    -5.1699    -0.0000    -0.0000 </r>
       <r>    -5.1585    -0.0000    -0.0000 </r>
       <r>    -5.1472    -0.0000    -0.0000 </r>
       <r>    -5.1358    -0.0000    -0.0000 </r>
       <r>    -5.1245    -0.0000    -0.0000 </r>
       <r>    -5.1131    -0.0000    -0.0000 </r>
       <r>    -5.1018    -0.0000    -0.0000 </r>
       <r>    -5.0904    -0.0000    -0.0000 </r>
       <r>    -5.0791    -0.0000    -0.0000 </r>
       <r>    -5.0677    -0.0000    -0.0000 </r>
       <r>    -5.0564    -0.0000    -0.0000 </r>
       <r>    -5.0450    -0.0000    -0.0000 </r>
       <r>    -5.0337    -0.0000    -0.0000 </r>
       <r>    -5.0223    -0.0000    -0.0000 </r>
       <r>    -5.0110    -0.0000    -0.0000 </r>
       <r>    -4.9996    -0.0000    -0.0000 </r>
       <r>    -4.9883    -0.0000    -0.0000 </r>
       <r>    -4.9769    -0.0000    -0.0000 </r>
       <r>    -4.9656    -0.0000    -0.0000 </r>
       <r>    -4.9542    -0.0000    -0.0000 </r>
       <r>    -4.9429    -0.0000    -0.0000 </r>
       <r>    -4.9316    -0.0000    -0.0000 </r>
       <r>    -4.9202    -0.0001    -0.0000 </r>
       <r>    -4.9089    -0.0001    -0.0000 </r>
       <r>    -4.8975    -0.0001    -0.0000 </r>
       <r>    -4.8862    -0.0001    -0.0000 </r>
       <r>    -4.8748    -0.0002    -0.0000 </r>
       <r>    -4.8635    -0.0002    -0.0000 </r>
       <r>    -4.8521    -0.0003    -0.0000 </r>
       <r>    -4.8408    -0.0004    -0.0000 </r>
       <r>    -4.8294    -0.0005    -0.0000 </r>
       <r>    -4.8181    -0.0006    -0.0000 </r>
       <r>    -4.8067    -0.0007    -0.0000 </r>
       <r>    -4.7954    -0.0009    -0.0000 </r>
       <r>    -4.7840    -0.0011    -0.0001 </r>
       <r>    -4.7727    -0.0013    -0.0001 </r>
       <r>    -4.7613    -0.0015    -0.0001 </r>
       <r>    -4.7500    -0.0018    -0.0001 </r>
       <r>    -4.7386    -0.0021    -0.0001 </r>
       <r>    -4.7273    -0.0025    -0.0002 </r>
       <r>    -4.7159    -0.0028    -0.0002 </r>
       <r>    -4.7046    -0.0032    -0.0002 </r>
       <r>    -4.6932    -0.0036    -0.0003 </r>
       <r>    -4.6819    -0.0039    -0.0003 </r>
       <r>    -4.6705    -0.0042    -0.0004 </r>
       <r>    -4.6592    -0.0045    -0.0004 </r>
       <r>    -4.6478    -0.0047    -0.0005 </r>
       <r>    -4.6365    -0.0048    -0.0005 </r>
       <r>    -4.6252    -0.0047    -0.0006 </r>
       <r>    -4.6138    -0.0044    -0.0006 </r>
       <r>    -4.6025    -0.0039    -0.0007 </r>
       <r>    -4.5911    -0.0031    -0.0007 </r>
       <r>    -4.5798    -0.0020    -0.0007 </r>
       <r>    -4.5684    -0.0005    -0.0007 </r>
       <r>    -4.5571     0.0014    -0.0007 </r>
       <r>    -4.5457     0.0036    -0.0007 </r>
       <r>    -4.5344     0.0063    -0.0006 </r>
       <r>    -4.5230     0.0095    -0.0005 </r>
       <r>    -4.5117     0.0130    -0.0003 </r>
       <r>    -4.5003     0.0170    -0.0002 </r>
       <r>    -4.4890     0.0213     0.0001 </r>
       <r>    -4.4776     0.0260     0.0004 </r>
       <r>    -4.4663     0.0309     0.0007 </r>
       <r>    -4.4549     0.0359     0.0011 </r>
       <r>    -4.4436     0.0409     0.0016 </r>
       <r>    -4.4322     0.0459     0.0021 </r>
       <r>    -4.4209     0.0506     0.0027 </r>
       <r>    -4.4095     0.0550     0.0033 </r>
       <r>    -4.3982     0.0589     0.0040 </r>
       <r>    -4.3868     0.0622     0.0047 </r>
       <r>    -4.3755     0.0647     0.0054 </r>
       <r>    -4.3641     0.0664     0.0062 </r>
       <r>    -4.3528     0.0672     0.0069 </r>
       <r>    -4.3414     0.0670     0.0077 </r>
       <r>    -4.3301     0.0659     0.0085 </r>
       <r>    -4.3188     0.0638     0.0092 </r>
       <r>    -4.3074     0.0609     0.0099 </r>
       <r>    -4.2961     0.0573     0.0105 </r>
       <r>    -4.2847     0.0531     0.0111 </r>
       <r>    -4.2734     0.0486     0.0117 </r>
       <r>    -4.2620     0.0441     0.0122 </r>
       <r>    -4.2507     0.0398     0.0126 </r>
       <r>    -4.2393     0.0362     0.0130 </r>
       <r>    -4.2280     0.0335     0.0134 </r>
       <r>    -4.2166     0.0323     0.0138 </r>
       <r>    -4.2053     0.0328     0.0142 </r>
       <r>    -4.1939     0.0354     0.0146 </r>
       <r>    -4.1826     0.0406     0.0150 </r>
       <r>    -4.1712     0.0486     0.0156 </r>
       <r>    -4.1599     0.0598     0.0162 </r>
       <r>    -4.1485     0.0743     0.0171 </r>
       <r>    -4.1372     0.0923     0.0181 </r>
       <r>    -4.1258     0.1139     0.0194 </r>
       <r>    -4.1145     0.1389     0.0210 </r>
       <r>    -4.1031     0.1673     0.0229 </r>
       <r>    -4.0918     0.1987     0.0252 </r>
       <r>    -4.0804     0.2328     0.0278 </r>
       <r>    -4.0691     0.2689     0.0309 </r>
       <r>    -4.0577     0.3066     0.0343 </r>
       <r>    -4.0464     0.3452     0.0383 </r>
       <r>    -4.0350     0.3837     0.0426 </r>
       <r>    -4.0237     0.4215     0.0474 </r>
       <r>    -4.0124     0.4576     0.0526 </r>
       <r>    -4.0010     0.4911     0.0582 </r>
       <r>    -3.9897     0.5214     0.0641 </r>
       <r>    -3.9783     0.5475     0.0703 </r>
       <r>    -3.9670     0.5689     0.0767 </r>
       <r>    -3.9556     0.5849     0.0834 </r>
       <r>    -3.9443     0.5953     0.0901 </r>
       <r>    -3.9329     0.5998     0.0969 </r>
       <r>    -3.9216     0.5984     0.1037 </r>
       <r>    -3.9102     0.5914     0.1104 </r>
       <r>    -3.8989     0.5792     0.1170 </r>
       <r>    -3.8875     0.5624     0.1234 </r>
       <r>    -3.8762     0.5419     0.1295 </r>
       <r>    -3.8648     0.5187     0.1354 </r>
       <r>    -3.8535     0.4939     0.1410 </r>
       <r>    -3.8421     0.4689     0.1464 </r>
       <r>    -3.8308     0.4449     0.1514 </r>
       <r>    -3.8194     0.4233     0.1562 </r>
       <r>    -3.8081     0.4054     0.1608 </r>
       <r>    -3.7967     0.3923     0.1653 </r>
       <r>    -3.7854     0.3852     0.1696 </r>
       <r>    -3.7740     0.3848     0.1740 </r>
       <r>    -3.7627     0.3919     0.1784 </r>
       <r>    -3.7513     0.4067     0.1831 </r>
       <r>    -3.7400     0.4293     0.1879 </r>
       <r>    -3.7286     0.4595     0.1932 </r>
       <r>    -3.7173     0.4966     0.1988 </r>
       <r>    -3.7060     0.5399     0.2049 </r>
       <r>    -3.6946     0.5881     0.2116 </r>
       <r>    -3.6833     0.6400     0.2188 </r>
       <r>    -3.6719     0.6939     0.2267 </r>
       <r>    -3.6606     0.7482     0.2352 </r>
       <r>    -3.6492     0.8011     0.2443 </r>
       <r>    -3.6379     0.8509     0.2540 </r>
       <r>    -3.6265     0.8958     0.2641 </r>
       <r>    -3.6152     0.9343     0.2747 </r>
       <r>    -3.6038     0.9649     0.2857 </r>
       <r>    -3.5925     0.9865     0.2969 </r>
       <r>    -3.5811     0.9983     0.3082 </r>
       <r>    -3.5698     0.9996     0.3195 </r>
       <r>    -3.5584     0.9902     0.3308 </r>
       <r>    -3.5471     0.9702     0.3418 </r>
       <r>    -3.5357     0.9400     0.3525 </r>
       <r>    -3.5244     0.9003     0.3627 </r>
       <r>    -3.5130     0.8520     0.3723 </r>
       <r>    -3.5017     0.7963     0.3814 </r>
       <r>    -3.4903     0.7345     0.3897 </r>
       <r>    -3.4790     0.6681     0.3973 </r>
       <r>    -3.4676     0.5986     0.4041 </r>
       <r>    -3.4563     0.5276     0.4101 </r>
       <r>    -3.4449     0.4565     0.4153 </r>
       <r>    -3.4336     0.3867     0.4196 </r>
       <r>    -3.4222     0.3195     0.4233 </r>
       <r>    -3.4109     0.2562     0.4262 </r>
       <r>    -3.3996     0.1977     0.4284 </r>
       <r>    -3.3882     0.1448     0.4301 </r>
       <r>    -3.3769     0.0982     0.4312 </r>
       <r>    -3.3655     0.0585     0.4318 </r>
       <r>    -3.3542     0.0259     0.4321 </r>
       <r>    -3.3428     0.0007     0.4322 </r>
       <r>    -3.3315    -0.0171     0.4320 </r>
       <r>    -3.3201    -0.0275     0.4316 </r>
       <r>    -3.3088    -0.0307     0.4313 </r>
       <r>    -3.2974    -0.0269     0.4310 </r>
       <r>    -3.2861    -0.0164     0.4308 </r>
       <r>    -3.2747     0.0003     0.4308 </r>
       <r>    -3.2634     0.0228     0.4311 </r>
       <r>    -3.2520     0.0505     0.4316 </r>
       <r>    -3.2407     0.0829     0.4326 </r>
       <r>    -3.2293     0.1193     0.4339 </r>
       <r>    -3.2180     0.1588     0.4357 </r>
       <r>    -3.2066     0.2008     0.4380 </r>
       <r>    -3.1953     0.2443     0.4408 </r>
       <r>    -3.1839     0.2884     0.4441 </r>
       <r>    -3.1726     0.3323     0.4478 </r>
       <r>    -3.1612     0.3749     0.4521 </r>
       <r>    -3.1499     0.4153     0.4568 </r>
       <r>    -3.1385     0.4527     0.4619 </r>
       <r>    -3.1272     0.4861     0.4675 </r>
       <r>    -3.1159     0.5149     0.4733 </r>
       <r>    -3.1045     0.5385     0.4794 </r>
       <r>    -3.0932     0.5564     0.4857 </r>
       <r>    -3.0818     0.5684     0.4922 </r>
       <r>    -3.0705     0.5745     0.4987 </r>
       <r>    -3.0591     0.5749     0.5052 </r>
       <r>    -3.0478     0.5701     0.5117 </r>
       <r>    -3.0364     0.5606     0.5180 </r>
       <r>    -3.0251     0.5474     0.5243 </r>
       <r>    -3.0137     0.5316     0.5303 </r>
       <r>    -3.0024     0.5144     0.5361 </r>
       <r>    -2.9910     0.4973     0.5418 </r>
       <r>    -2.9797     0.4817     0.5472 </r>
       <r>    -2.9683     0.4693     0.5526 </r>
       <r>    -2.9570     0.4615     0.5578 </r>
       <r>    -2.9456     0.4597     0.5630 </r>
       <r>    -2.9343     0.4653     0.5683 </r>
       <r>    -2.9229     0.4795     0.5737 </r>
       <r>    -2.9116     0.5032     0.5794 </r>
       <r>    -2.9002     0.5370     0.5855 </r>
       <r>    -2.8889     0.5814     0.5921 </r>
       <r>    -2.8775     0.6364     0.5994 </r>
       <r>    -2.8662     0.7017     0.6073 </r>
       <r>    -2.8548     0.7767     0.6161 </r>
       <r>    -2.8435     0.8606     0.6259 </r>
       <r>    -2.8321     0.9522     0.6367 </r>
       <r>    -2.8208     1.0499     0.6486 </r>
       <r>    -2.8095     1.1521     0.6617 </r>
       <r>    -2.7981     1.2570     0.6760 </r>
       <r>    -2.7868     1.3625     0.6914 </r>
       <r>    -2.7754     1.4667     0.7081 </r>
       <r>    -2.7641     1.5674     0.7259 </r>
       <r>    -2.7527     1.6625     0.7447 </r>
       <r>    -2.7414     1.7503     0.7646 </r>
       <r>    -2.7300     1.8288     0.7853 </r>
       <r>    -2.7187     1.8965     0.8069 </r>
       <r>    -2.7073     1.9521     0.8290 </r>
       <r>    -2.6960     1.9945     0.8516 </r>
       <r>    -2.6846     2.0230     0.8746 </r>
       <r>    -2.6733     2.0370     0.8977 </r>
       <r>    -2.6619     2.0367     0.9208 </r>
       <r>    -2.6506     2.0223     0.9438 </r>
       <r>    -2.6392     1.9943     0.9664 </r>
       <r>    -2.6279     1.9539     0.9886 </r>
       <r>    -2.6165     1.9022     1.0102 </r>
       <r>    -2.6052     1.8409     1.0311 </r>
       <r>    -2.5938     1.7716     1.0512 </r>
       <r>    -2.5825     1.6964     1.0704 </r>
       <r>    -2.5711     1.6173     1.0888 </r>
       <r>    -2.5598     1.5364     1.1062 </r>
       <r>    -2.5484     1.4559     1.1227 </r>
       <r>    -2.5371     1.3776     1.1384 </r>
       <r>    -2.5257     1.3034     1.1532 </r>
       <r>    -2.5144     1.2348     1.1672 </r>
       <r>    -2.5031     1.1733     1.1805 </r>
       <r>    -2.4917     1.1197     1.1932 </r>
       <r>    -2.4804     1.0747     1.2054 </r>
       <r>    -2.4690     1.0384     1.2172 </r>
       <r>    -2.4577     1.0108     1.2286 </r>
       <r>    -2.4463     0.9913     1.2399 </r>
       <r>    -2.4350     0.9789     1.2510 </r>
       <r>    -2.4236     0.9726     1.2620 </r>
       <r>    -2.4123     0.9709     1.2731 </r>
       <r>    -2.4009     0.9723     1.2841 </r>
       <r>    -2.3896     0.9751     1.2952 </r>
       <r>    -2.3782     0.9776     1.3062 </r>
       <r>    -2.3669     0.9782     1.3173 </r>
       <r>    -2.3555     0.9755     1.3284 </r>
       <r>    -2.3442     0.9680     1.3394 </r>
       <r>    -2.3328     0.9549     1.3502 </r>
       <r>    -2.3215     0.9352     1.3608 </r>
       <r>    -2.3101     0.9086     1.3712 </r>
       <r>    -2.2988     0.8749     1.3811 </r>
       <r>    -2.2874     0.8342     1.3906 </r>
       <r>    -2.2761     0.7871     1.3995 </r>
       <r>    -2.2647     0.7341     1.4078 </r>
       <r>    -2.2534     0.6761     1.4155 </r>
       <r>    -2.2420     0.6143     1.4225 </r>
       <r>    -2.2307     0.5497     1.4287 </r>
       <r>    -2.2193     0.4836     1.4342 </r>
       <r>    -2.2080     0.4171     1.4389 </r>
       <r>    -2.1967     0.3515     1.4429 </r>
       <r>    -2.1853     0.2878     1.4462 </r>
       <r>    -2.1740     0.2271     1.4488 </r>
       <r>    -2.1626     0.1700     1.4507 </r>
       <r>    -2.1513     0.1175     1.4520 </r>
       <r>    -2.1399     0.0699     1.4528 </r>
       <r>    -2.1286     0.0279     1.4531 </r>
       <r>    -2.1172    -0.0082     1.4530 </r>
       <r>    -2.1059    -0.0383     1.4526 </r>
       <r>    -2.0945    -0.0621     1.4519 </r>
       <r>    -2.0832    -0.0795     1.4510 </r>
       <r>    -2.0718    -0.0905     1.4500 </r>
       <r>    -2.0605    -0.0950     1.4489 </r>
       <r>    -2.0491    -0.0931     1.4478 </r>
       <r>    -2.0378    -0.0846     1.4469 </r>
       <r>    -2.0264    -0.0695     1.4461 </r>
       <r>    -2.0151    -0.0480     1.4455 </r>
       <r>    -2.0037    -0.0199     1.4453 </r>
       <r>    -1.9924     0.0146     1.4455 </r>
       <r>    -1.9810     0.0552     1.4461 </r>
       <r>    -1.9697     0.1019     1.4473 </r>
       <r>    -1.9583     0.1542     1.4490 </r>
       <r>    -1.9470     0.2115     1.4514 </r>
       <r>    -1.9356     0.2733     1.4545 </r>
       <r>    -1.9243     0.3386     1.4584 </r>
       <r>    -1.9129     0.4065     1.4630 </r>
       <r>    -1.9016     0.4758     1.4684 </r>
       <r>    -1.8903     0.5452     1.4746 </r>
       <r>    -1.8789     0.6134     1.4815 </r>
       <r>    -1.8676     0.6788     1.4892 </r>
       <r>    -1.8562     0.7400     1.4976 </r>
       <r>    -1.8449     0.7955     1.5066 </r>
       <r>    -1.8335     0.8439     1.5162 </r>
       <r>    -1.8222     0.8840     1.5263 </r>
       <r>    -1.8108     0.9147     1.5366 </r>
[...]
       </set>
       <set comment="band 2">
        <r>  0.0057  0.0000  0.0023  0.0007  0.0000  0.0000  0.0000  0.0001  0.0000 </r>
        <r>  0.0257  0.0000  0.0017  0.0033  0.0000  0.0000  0.0000  0.0001  0.0001 </r>
        <r>  0.0712  0.0000  0.0002  0.0091  0.0000  0.0000  0.0000  0.0000  0.0001 </r>
        <r>  0.0510  0.0000  0.0008  0.0065  0.0000  0.0000  0.0000  0.0001  0.0001 </r>
       </set>
       <set comment="band 3">
        <r>  0.0549  0.0000  0.0003  0.0092  0.0000  0.0000  0.0009  0.0000  0.0002 </r>
        <r>  0.0239  0.0000  0.0120  0.0040  0.0000  0.0000  0.0004  0.0008  0.0001 </r>
        <r>  0.0007  0.0000  0.0207  0.0001  0.0000  0.0000  0.0000  0.0014  0.0000 </r>
        <r>  0.0319  0.0000  0.0090  0.0053  0.0000  0.0000  0.0005  0.0006  0.0001 </r>
       </set>
       <set comment="band 4">
        <r>  0.0007  0.0000  0.0207  0.0001  0.0000  0.0000  0.0000  0.0014  0.0000 </r>
        <r>  0.0319  0.0000  0.0090  0.0053  0.0000  0.0000  0.0005  0.0006  0.0001 </r>
        <r>  0.0549  0.0000  0.0003  0.0092  0.0000  0.0000  0.0009  0.0000  0.0002 </r>
        <r>  0.0239  0.0000  0.0120  0.0040  0.0000  0.0000  0.0004  0.0008  0.0001 </r>
       </set>
       <set comment="band 5">
        <r>  0.0011  0.0001  0.0351  0.0006  0.0001  0.0000  0.0004  0.0037  0.0000 </r>
        <r>  0.0076  0.0000  0.0262  0.0041  0.0000  0.0000  0.0032  0.0026  0.0000 </r>
        <r>  0.0245  0.0000  0.0015  0.0129  0.0000  0.0000  0.0101  0.0002  0.0001 </r>
        <r>  0.0177  0.0000  0.0112  0.0096  0.0000  0.0000  0.0075  0.0011  0.0001 </r>
       </set>
       <set comment="band 6">
        <r>  0.0245  0.0000  0.0015  0.0129  0.0000  0.0000  0.0101  0.0002  0.0001 </r>
        <r>  0.0177  0.0000  0.0112  0.0096  0.0000  0.0000  0.0075  0.0011  0.0001 </r>
        <r>  0.0011  0.0001  0.0351  0.0006  0.0001  0.0000  0.0004  0.0037  0.0000 </r>
        <r>  0.0076  0.0000  0.0262  0.0041  0.0000  0.0000  0.0032  0.0026  0.0000 </r>
       </set>
       <set comment="band 7">
        <r>  0.0068  0.0049  0.0003  0.0113  0.0037  0.0005  0.0033  0.0001  0.0003 </r>
        <r>  0.0006  0.0055  0.0007  0.0013  0.0041  0.0000  0.0004  0.0025  0.0000 </r>
        <r>  0.0011  0.0294  0.0015  0.0019  0.0220  0.0001  0.0005  0.0004  0.0001 </r>
        <r>  0.0033  0.0310  0.0001  0.0075  0.0229  0.0000  0.0023  0.0005  0.0002 </r>
       </set>
       <set comment="band 8">
        <r>  0.0011  0.0294  0.0015  0.0019  0.0220  0.0001  0.0005  0.0004  0.0001 </r>
        <r>  0.0033  0.0310  0.0001  0.0075  0.0229  0.0000  0.0023  0.0005  0.0002 </r>
        <r>  0.0068  0.0049  0.0003  0.0113  0.0037  0.0005  0.0033  0.0001  0.0003 </r>
        <r>  0.0006  0.0055  0.0007  0.0013  0.0041  0.0000  0.0004  0.0025  0.0000 </r>
       </set>
       <set comment="band 9">
        <r>  0.0236  0.0090  0.0034  0.0132  0.0070  0.0000  0.0010  0.0009  0.0010 </r>
        <r>  0.0011  0.0005  0.0000  0.0007  0.0004  0.0011  0.0001  0.0012  0.0000 </r>
        <r>  0.0149  0.0143  0.0053  0.0083  0.0111  0.0000  0.0006  0.0014  0.0006 </r>
        <r>  0.0464  0.0195  0.0000  0.0276  0.0158  0.0000  0.0025  0.0000  0.0017 </r>
       </set>
       <set comment="band 10">
        <r>  0.0149  0.0143  0.0053  0.0083  0.0111  0.0000  0.0006  0.0014  0.0006 </r>
        <r>  0.0464  0.0195  0.0000  0.0276  0.0158  0.0000  0.0025  0.0000  0.0017 </r>
        <r>  0.0236  0.0090  0.0034  0.0132  0.0070  0.0000  0.0010  0.0009  0.0010 </r>
        <r>  0.0011  0.0005  0.0000  0.0007  0.0004  0.0011  0.0001  0.0012  0.0000 </r>
       </set>
       <set comment="band 11">
        <r>  0.0402  0.0003  0.0002  0.0512  0.0004  0.0050  0.0046  0.0009  0.0032 </r>
        <r>  0.0098  0.0147  0.0033  0.0045  0.0139  0.0010  0.0002  0.0045  0.0010 </r>
        <r>  0.0030  0.0038  0.0026  0.0038  0.0050  0.0004  0.0003  0.0118  0.0002 </r>
        <r>  0.0034  0.0051  0.0097  0.0016  0.0048  0.0030  0.0001  0.0132  0.0003 </r>
       </set>
       <set comment="band 12">
        <r>  0.0030  0.0038  0.0026  0.0038  0.0050  0.0004  0.0003  0.0118  0.0002 </r>
        <r>  0.0034  0.0051  0.0097  0.0016  0.0048  0.0030  0.0001  0.0132  0.0003 </r>
        <r>  0.0402  0.0003  0.0002  0.0512  0.0004  0.0050  0.0046  0.0009  0.0032 </r>
        <r>  0.0098  0.0147  0.0033  0.0045  0.0139  0.0010  0.0002  0.0045  0.0010 </r>
       </set>
      </set>
      <set comment="kpoint 14">
       <set comment="band 1">
        <r>  0.0064  0.0001  0.0022  0.0022  0.0000  0.0000  0.0000  0.0003  0.0001 </r>
        <r>  0.0128  0.0002  0.0019  0.0043  0.0000  0.0000  0.0000  0.0003  0.0002 </r>
        <r>  0.0567  0.0007  0.0002  0.0191  0.0001  0.0000  0.0001  0.0000  0.0007 </r>
        <r>  0.0502  0.0006  0.0005  0.0169  0.0001  0.0000  0.0001  0.0001  0.0006 </r>
       </set>
       <set comment="band 2">
        <r>  0.0567  0.0007  0.0002  0.0191  0.0001  0.0000  0.0001  0.0000  0.0007 </r>
        <r>  0.0502  0.0006  0.0005  0.0169  0.0001  0.0000  0.0001  0.0001  0.0006 </r>
        <r>  0.0064  0.0001  0.0022  0.0022  0.0000  0.0000  0.0000  0.0003  0.0001 </r>
        <r>  0.0128  0.0002  0.0019  0.0043  0.0000  0.0000  0.0000  0.0003  0.0002 </r>
       </set>
       <set comment="band 3">
        <r>  0.0383  0.0010  0.0002  0.0217  0.0001  0.0000  0.0005  0.0000  0.0007 </r>
        <r>  0.0160  0.0004  0.0118  0.0088  0.0000  0.0001  0.0002  0.0018  0.0003 </r>
        <r>  0.0003  0.0000  0.0199  0.0002  0.0000  0.0001  0.0000  0.0030  0.0000 </r>
        <r>  0.0233  0.0006  0.0081  0.0128  0.0001  0.0000  0.0003  0.0013  0.0004 </r>
       </set>
       <set comment="band 4">
        <r>  0.0003  0.0000  0.0199  0.0002  0.0000  0.0001  0.0000  0.0030  0.0000 </r>
        <r>  0.0233  0.0006  0.0081  0.0128  0.0001  0.0000  0.0003  0.0013  0.0004 </r>
        <r>  0.0383  0.0010  0.0002  0.0217  0.0001  0.0000  0.0005  0.0000  0.0007 </r>
        <r>  0.0160  0.0004  0.0118  0.0088  0.0000  0.0001  0.0002  0.0018  0.0003 </r>
       </set>
       <set comment="band 5">
        <r>  0.0024  0.0018  0.0001  0.0020  0.0007  0.0005  0.0003  0.0020  0.0000 </r>
        <r>  0.0062  0.0049  0.0037  0.0056  0.0018  0.0004  0.0007  0.0011  0.0000 </r>
        <r>  0.0269  0.0200  0.0009  0.0204  0.0079  0.0001  0.0026  0.0004  0.0002 </r>
        <r>  0.0205  0.0162  0.0011  0.0186  0.0062  0.0001  0.0024  0.0003  0.0001 </r>
       </set>
       <set comment="band 6">
        <r>  0.0269  0.0200  0.0009  0.0204  0.0079  0.0001  0.0026  0.0004  0.0002 </r>
        <r>  0.0205  0.0162  0.0011  0.0186  0.0062  0.0001  0.0024  0.0003  0.0001 </r>
        <r>  0.0024  0.0018  0.0001  0.0020  0.0007  0.0005  0.0003  0.0020  0.0000 </r>
        <r>  0.0062  0.0049  0.0037  0.0056  0.0018  0.0004  0.0007  0.0011  0.0000 </r>
       </set>
       <set comment="band 7">
        <r>  0.0101  0.0002  0.0160  0.0013  0.0004  0.0000  0.0006  0.0051  0.0003 </r>
        <r>  0.0050  0.0033  0.0159  0.0063  0.0028  0.0002  0.0027  0.0041  0.0005 </r>
        <r>  0.0035  0.0055  0.0098  0.0202  0.0050  0.0000  0.0074  0.0007  0.0010 </r>
        <r>  0.0091  0.0060  0.0088  0.0114  0.0051  0.0001  0.0049  0.0022  0.0009 </r>
       </set>
       <set comment="band 8">
        <r>  0.0035  0.0055  0.0098  0.0202  0.0050  0.0000  0.0074  0.0007  0.0010 </r>
        <r>  0.0091  0.0060  0.0088  0.0114  0.0051  0.0001  0.0049  0.0022  0.0009 </r>
        <r>  0.0101  0.0002  0.0160  0.0013  0.0004  0.0000  0.0006  0.0051  0.0003 </r>
        <r>  0.0050  0.0033  0.0159  0.0063  0.0028  0.0002  0.0027  0.0041  0.0005 </r>
       </set>
       <set comment="band 9">
        <r>  0.0005  0.0234  0.0006  0.0049  0.0091  0.0010  0.0000  0.0021  0.0001 </r>
        <r>  0.0089  0.0206  0.0011  0.0051  0.0088  0.0009  0.0001  0.0031  0.0002 </r>
        <r>  0.0057  0.0116  0.0192  0.0011  0.0061  0.0010  0.0001  0.0026  0.0003 </r>
        <r>  0.0045  0.0104  0.0021  0.0026  0.0045  0.0018  0.0000  0.0062  0.0001 </r>
       </set>
       <set comment="band 10">
        <r>  0.0057  0.0116  0.0192  0.0011  0.0061  0.0010  0.0001  0.0026  0.0003 </r>
        <r>  0.0045  0.0104  0.0021  0.0026  0.0045  0.0018  0.0000  0.0062  0.0001 </r>
        <r>  0.0005  0.0234  0.0006  0.0049  0.0091  0.0010  0.0000  0.0021  0.0001 </r>
        <r>  0.0089  0.0206  0.0011  0.0051  0.0088  0.0009  0.0001  0.0031  0.0002 </r>
       </set>
       <set comment="band 11">
        <r>  0.0226  0.0036  0.0034  0.0107  0.0009  0.0028  0.0015  0.0020  0.0001 </r>
        <r>  0.0118  0.0017  0.0191  0.0025  0.0003  0.0028  0.0002  0.0006  0.0000 </r>
        <r>  0.0666  0.0051  0.0022  0.0080  0.0006  0.0032  0.0003  0.0022  0.0004 </r>
        <r>  0.0678  0.0095  0.0033  0.0146  0.0017  0.0005  0.0014  0.0001  0.0003 </r>
       </set>
       <set comment="band 12">
        <r>  0.0666  0.0051  0.0022  0.0080  0.0006  0.0032  0.0003  0.0022  0.0004 </r>
        <r>  0.0678  0.0095  0.0033  0.0146  0.0017  0.0005  0.0014  0.0001  0.0003 </r>
        <r>  0.0226  0.0036  0.0034  0.0107  0.0009  0.0028  0.0015  0.0020  0.0001 </r>
        <r>  0.0118  0.0017  0.0191  0.0025  0.0003  0.0028  0.0002  0.0006  0.0000 </r>
       </set>
      </set>
      <set comment="kpoint 15">
       <set comment="band 1">
        <r>  0.0226  0.0020  0.0002  0.0037  0.0009  0.0001  0.0005  0.0004  0.0004 </r>
        <r>  0.0019  0.0029  0.0035  0.0086  0.0001  0.0000  0.0001  0.0000  0.0002 </r>
        <r>  0.0025  0.0103  0.0018  0.0307  0.0003  0.0000  0.0001  0.0000  0.0006 </r>
        <r>  0.0075  0.0117  0.0009  0.0344  0.0004  0.0000  0.0002  0.0000  0.0008 </r>
       </set>
       <set comment="band 2">
        <r>  0.0025  0.0103  0.0018  0.0307  0.0003  0.0000  0.0001  0.0000  0.0006 </r>
        <r>  0.0075  0.0117  0.0009  0.0344  0.0004  0.0000  0.0002  0.0000  0.0008 </r>
        <r>  0.0226  0.0020  0.0002  0.0037  0.0009  0.0001  0.0005  0.0004  0.0004 </r>
        <r>  0.0019  0.0029  0.0035  0.0086  0.0001  0.0000  0.0001  0.0000  0.0002 </r>
       </set>
       <set comment="band 3">
        <r>  0.0287  0.0047  0.0019  0.0110  0.0012  0.0001  0.0006  0.0001  0.0006 </r>
        <r>  0.0001  0.0000  0.0004  0.0000  0.0000  0.0003  0.0000  0.0009  0.0000 </r>
        <r>  0.0240  0.0051  0.0022  0.0131  0.0011  0.0001  0.0005  0.0001  0.0006 </r>
        <r>  0.0716  0.0070  0.0000  0.0134  0.0032  0.0000  0.0013  0.0000  0.0013 </r>
       </set>
       <set comment="band 4">
        <r>  0.0240  0.0051  0.0022  0.0131  0.0011  0.0001  0.0005  0.0001  0.0006 </r>
        <r>  0.0716  0.0070  0.0000  0.0134  0.0032  0.0000  0.0013  0.0000  0.0013 </r>
        <r>  0.0287  0.0047  0.0019  0.0110  0.0012  0.0001  0.0006  0.0001  0.0006 </r>
        <r>  0.0001  0.0000  0.0004  0.0000  0.0000  0.0003  0.0000  0.0009  0.0000 </r>
       </set>
       <set comment="band 5">
        <r>  0.0000  0.0052  0.0121  0.0157  0.0001  0.0002  0.0000  0.0001  0.0004 </r>
        <r>  0.0079  0.0049  0.0165  0.0141  0.0004  0.0003  0.0000  0.0005  0.0004 </r>
        <r>  0.0424  0.0035  0.0000  0.0011  0.0035  0.0017  0.0000  0.0053  0.0012 </r>
        <r>  0.0084  0.0052  0.0156  0.0149  0.0005  0.0003  0.0000  0.0005  0.0004 </r>
       </set>
       <set comment="band 6">
        <r>  0.0424  0.0035  0.0000  0.0011  0.0035  0.0017  0.0000  0.0053  0.0012 </r>
        <r>  0.0084  0.0052  0.0156  0.0149  0.0005  0.0003  0.0000  0.0005  0.0004 </r>
        <r>  0.0000  0.0052  0.0121  0.0157  0.0001  0.0002  0.0000  0.0001  0.0004 </r>
        <r>  0.0079  0.0049  0.0165  0.0141  0.0004  0.0003  0.0000  0.0005  0.0004 </r>
       </set>
       <set comment="band 7">
        <r>  0.0237  0.0038  0.0072  0.0052  0.0022  0.0012  0.0000  0.0034  0.0009 </r>
        <r>  0.0017  0.0002  0.0006  0.0001  0.0002  0.0032  0.0000  0.0094  0.0001 </r>
        <r>  0.0119  0.0042  0.0143  0.0086  0.0012  0.0007  0.0000  0.0018  0.0005 </r>
        <r>  0.0591  0.0068  0.0000  0.0029  0.0060  0.0001  0.0001  0.0003  0.0020 </r>
       </set>
       <set comment="band 8">
        <r>  0.0119  0.0042  0.0143  0.0086  0.0012  0.0007  0.0000  0.0018  0.0005 </r>
        <r>  0.0591  0.0068  0.0000  0.0029  0.0060  0.0001  0.0001  0.0003  0.0020 </r>
        <r>  0.0237  0.0038  0.0072  0.0052  0.0022  0.0012  0.0000  0.0034  0.0009 </r>
        <r>  0.0017  0.0002  0.0006  0.0001  0.0002  0.0032  0.0000  0.0094  0.0001 </r>
       </set>
       <set comment="band 9">
        <r>  0.0005  0.0008  0.0040  0.0006  0.0002  0.0018  0.0001  0.0006  0.0001 </r>
        <r>  0.0063  0.0121  0.0006  0.0041  0.0030  0.0017  0.0023  0.0033  0.0010 </r>
        <r>  0.0230  0.0334  0.0001  0.0111  0.0081  0.0005  0.0064  0.0015  0.0027 </r>
        <r>  0.0115  0.0220  0.0003  0.0073  0.0055  0.0010  0.0042  0.0018  0.0018 </r>
       </set>
       <set comment="band 10">
        <r>  0.0230  0.0334  0.0001  0.0111  0.0081  0.0005  0.0064  0.0015  0.0027 </r>
        <r>  0.0115  0.0220  0.0003  0.0073  0.0055  0.0010  0.0042  0.0018  0.0018 </r>
        <r>  0.0005  0.0008  0.0040  0.0006  0.0002  0.0018  0.0001  0.0006  0.0001 </r>
        <r>  0.0063  0.0121  0.0006  0.0041  0.0030  0.0017  0.0023  0.0033  0.0010 </r>
       </set>
       <set comment="band 11">
        <r>  0.0000  0.0046  0.0284  0.0146  0.0002  0.0002  0.0000  0.0002  0.0005 </r>
        <r>  0.0002  0.0084  0.0170  0.0132  0.0023  0.0018  0.0013  0.0006  0.0011 </r>
        <r>  0.0062  0.0096  0.0002  0.0030  0.0056  0.0049  0.0032  0.0145  0.0018 </r>
        <r>  0.0001  0.0060  0.0238  0.0094  0.0017  0.0026  0.0009  0.0009  0.0008 </r>
       </set>
       <set comment="band 12">
        <r>  0.0062  0.0096  0.0002  0.0030  0.0056  0.0049  0.0032  0.0145  0.0018 </r>
        <r>  0.0001  0.0060  0.0238  0.0094  0.0017  0.0026  0.0009  0.0009  0.0008 </r>
        <r>  0.0000  0.0046  0.0284  0.0146  0.0002  0.0002  0.0000  0.0002  0.0005 </r>
        <r>  0.0002  0.0084  0.0170  0.0132  0.0023  0.0018  0.0013  0.0006  0.0011 </r>
       </set>
      </set>
      <set comment="kpoint 16">
       <set comment="band 1">
        <r>  0.0042  0.0000  0.0023  0.0034  0.0000  0.0000  0.0001  0.0005  0.0003 </r>
        <r>  0.0092  0.0000  0.0020  0.0076  0.0000  0.0000  0.0001  0.0004  0.0006 </r>
        <r>  0.0402  0.0000  0.0002  0.0327  0.0000  0.0000  0.0005  0.0001  0.0025 </r>
        <r>  0.0346  0.0000  0.0005  0.0288  0.0000  0.0000  0.0004  0.0001  0.0022 </r>
       </set>
       <set comment="band 2">
        <r>  0.0402  0.0000  0.0002  0.0327  0.0000  0.0000  0.0005  0.0001  0.0025 </r>
        <r>  0.0346  0.0000  0.0005  0.0288  0.0000  0.0000  0.0004  0.0001  0.0022 </r>
        <r>  0.0042  0.0000  0.0023  0.0034  0.0000  0.0000  0.0001  0.0005  0.0003 </r>
        <r>  0.0092  0.0000  0.0020  0.0076  0.0000  0.0000  0.0001  0.0004  0.0006 </r>
       </set>
       <set comment="band 3">
        <r>  0.0001  0.0000  0.0075  0.0300  0.0000  0.0000  0.0008  0.0007  0.0019 </r>
        <r>  0.0000  0.0001  0.0126  0.0005  0.0000  0.0002  0.0000  0.0023  0.0000 </r>
        <r>  0.0000  0.0001  0.0106  0.0212  0.0000  0.0000  0.0006  0.0009  0.0013 </r>
        <r>  0.0023  0.0112  0.0002  0.0410  0.0024  0.0000  0.0007  0.0000  0.0028 </r>
       </set>
       <set comment="band 4">
        <r>  0.0000  0.0001  0.0106  0.0212  0.0000  0.0000  0.0006  0.0009  0.0013 </r>
        <r>  0.0023  0.0112  0.0002  0.0410  0.0024  0.0000  0.0007  0.0000  0.0028 </r>
        <r>  0.0001  0.0000  0.0075  0.0300  0.0000  0.0000  0.0008  0.0007  0.0019 </r>
        <r>  0.0000  0.0001  0.0126  0.0005  0.0000  0.0002  0.0000  0.0023  0.0000 </r>
       </set>
       <set comment="band 5">
        <r>  0.0083  0.0041  0.0000  0.0000  0.0008  0.0007  0.0003  0.0000  0.0000 </r>
        <r>  0.0047  0.0076  0.0017  0.0031  0.0015  0.0001  0.0005  0.0010  0.0001 </r>
        <r>  0.0006  0.0546  0.0002  0.0000  0.0111  0.0001  0.0000  0.0001  0.0000 </r>
        <r>  0.0143  0.0233  0.0005  0.0094  0.0047  0.0000  0.0014  0.0003  0.0003 </r>
       </set>
       <set comment="band 6">
        <r>  0.0006  0.0546  0.0002  0.0000  0.0111  0.0001  0.0000  0.0001  0.0000 </r>
        <r>  0.0143  0.0233  0.0005  0.0094  0.0047  0.0000  0.0014  0.0003  0.0003 </r>
        <r>  0.0083  0.0041  0.0000  0.0000  0.0008  0.0007  0.0003  0.0000  0.0000 </r>
        <r>  0.0047  0.0076  0.0017  0.0031  0.0015  0.0001  0.0005  0.0010  0.0001 </r>
       </set>
       <set comment="band 7">
        <r>  0.0732  0.0003  0.0000  0.0007  0.0001  0.0000  0.0021  0.0001  0.0000 </r>
        <r>  0.0280  0.0133  0.0071  0.0000  0.0028  0.0005  0.0007  0.0013  0.0000 </r>
        <r>  0.0015  0.0128  0.0010  0.0000  0.0028  0.0000  0.0000  0.0072  0.0000 </r>
        <r>  0.0343  0.0162  0.0058  0.0000  0.0034  0.0004  0.0009  0.0011  0.0000 </r>
       </set>
       <set comment="band 8">
        <r>  0.0015  0.0128  0.0010  0.0000  0.0028  0.0000  0.0000  0.0072  0.0000 </r>
        <r>  0.0343  0.0162  0.0058  0.0000  0.0034  0.0004  0.0009  0.0011  0.0000 </r>
        <r>  0.0732  0.0003  0.0000  0.0007  0.0001  0.0000  0.0021  0.0001  0.0000 </r>
        <r>  0.0280  0.0133  0.0071  0.0000  0.0028  0.0005  0.0007  0.0013  0.0000 </r>
       </set>
       <set comment="band 9">
        <r>  0.0131  0.0125  0.0172  0.0037  0.0030  0.0018  0.0004  0.0002  0.0001 </r>
        <r>  0.0131  0.0256  0.0006  0.0062  0.0060  0.0001  0.0005  0.0008  0.0002 </r>
        <r>  0.0359  0.0046  0.0063  0.0101  0.0011  0.0048  0.0010  0.0001  0.0003 </r>
        <r>  0.0008  0.0016  0.0098  0.0004  0.0004  0.0014  0.0000  0.0127  0.0000 </r>
       </set>
       <set comment="band 10">
        <r>  0.0359  0.0046  0.0063  0.0101  0.0011  0.0048  0.0010  0.0001  0.0003 </r>
        <r>  0.0008  0.0016  0.0098  0.0004  0.0004  0.0014  0.0000  0.0127  0.0000 </r>
        <r>  0.0131  0.0125  0.0172  0.0037  0.0030  0.0018  0.0004  0.0002  0.0001 </r>
        <r>  0.0131  0.0256  0.0006  0.0062  0.0060  0.0001  0.0005  0.0008  0.0002 </r>
       </set>
       <set comment="band 11">
        <r>  0.0217  0.0048  0.0055  0.0082  0.0011  0.0050  0.0005  0.0030  0.0002 </r>
        <r>  0.0008  0.0000  0.0005  0.0002  0.0000  0.0152  0.0000  0.0001  0.0000 </r>
        <r>  0.0145  0.0072  0.0082  0.0055  0.0017  0.0034  0.0003  0.0046  0.0002 </r>
        <r>  0.0820  0.0009  0.0000  0.0179  0.0003  0.0002  0.0013  0.0000  0.0004 </r>
       </set>
       <set comment="band 12">
        <r>  0.0145  0.0072  0.0082  0.0055  0.0017  0.0034  0.0003  0.0046  0.0002 </r>
        <r>  0.0820  0.0009  0.0000  0.0179  0.0003  0.0002  0.0013  0.0000  0.0004 </r>
        <r>  0.0217  0.0048  0.0055  0.0082  0.0011  0.0050  0.0005  0.0030  0.0002 </r>
        <r>  0.0008  0.0000  0.0005  0.0002  0.0000  0.0152  0.0000  0.0001  0.0000 </r>
       </set>
      </set>
     </set>
    </set>
   </array>
  </projected>
 </calculation>
 <structure name="finalpos" >
  <crystal>
   <varray name="basis" >
    <v>       1.56685693      -2.71387632      -0.00000000 </v>
    <v>       1.56685693       2.71387632      -0.00000000 </v>
    <v>       0.00000000      -0.00000000      10.66885969 </v>
   </varray>
   <i name="volume">     90.73344333 </i>
   <varray name="rec_basis" >
    <v>       0.31911018      -0.18423831      -0.00000000 </v>
    <v>       0.31911018       0.18423831       0.00000000 </v>
    <v>       0.00000000      -0.00000000       0.09373073 </v>
   </varray>
  </crystal>
  <varray name="positions" >
   <v>      -0.00000000       0.00000000       0.00000000 </v>
   <v>       0.33333300       0.66666700       0.25000000 </v>
   <v>      -0.00000000       0.00000000       0.50000000 </v>
   <v>       0.66666700       0.33333300       0.75000000 </v>
  </varray>
 </structure>
</modeling>
