<?xml version="1.0" encoding="ISO-8859-1"?>
<modeling>
 <generator>
  <i name="program" type="string">vasp </i>
  <i name="version" type="string">6.2.0  </i>
  <i name="subversion" type="string">18Jan21 (build Feb 15 2021 19:12:26) complex                          parallel </i>
  <i name="platform" type="string">LinuxIFC-AVX-CX1-JMF-Aug2020 </i>
  <i name="date" type="string">2024 01 25 </i>
  <i name="time" type="string">09:09:20 </i>
 </generator>
 <incar>
  <i type="string" name="PREC">Accurate</i>
  <i type="string" name="ALGO">Normal</i>
  <i type="int" name="ICHARG">     1</i>
  <i type="int" name="NELM">   120</i>
  <i type="int" name="IBRION">     2</i>
  <i name="EDIFF">      0.00000040</i>
  <i name="EDIFFG">     -0.01000000</i>
  <i type="int" name="NSW">   100</i>
  <i type="int" name="ISIF">     3</i>
  <i name="ENCUT">    450.00000000</i>
  <i type="int" name="NEDOS">  2000</i>
  <i type="string" name="LREAL">Auto</i>
  <i type="int" name="ISMEAR">     1</i>
  <i name="SIGMA">      0.20000000</i>
  <i type="int" name="LORBIT">    11</i>
  <i type="logical" name="LASPH"> T  </i>
  <i name="HFSCREEN">      0.00000000</i>
  <i type="logical" name="LHFCALC"> F  </i>
  <i type="string" name="GGA">Ps</i>
 </incar>
 <primitive_cell>
  <structure name="primitive_cell" >
   <crystal>
    <varray name="basis" >
     <v>       1.58515713      -2.74557209       0.00000000 </v>
     <v>       1.58515713       2.74557209       0.00000000 </v>
     <v>       0.00000000       0.00000000       5.15875934 </v>
    </varray>
    <i name="volume">     44.90352497 </i>
    <varray name="rec_basis" >
     <v>       0.31542614      -0.18211141       0.00000000 </v>
     <v>       0.31542614       0.18211141       0.00000000 </v>
     <v>       0.00000000       0.00000000       0.19384506 </v>
    </varray>
   </crystal>
   <varray name="positions" >
    <v>       0.33333300       0.66666700       0.25000000 </v>
    <v>       0.66666700       0.33333300       0.75000000 </v>
   </varray>
  </structure>
  <varray name="primitive_index" >
   <v type="int" >        1 </v>
   <v type="int" >        2 </v>
  </varray>
 </primitive_cell>
 <kpoints>
  <generation param="Gamma">
   <v type="int" name="divisions">       9        9        5 </v>
   <v name="usershift">      0.00000000       0.00000000       0.00000000 </v>
   <v name="genvec1">      0.11111111      -0.00000000       0.00000000 </v>
   <v name="genvec2">     -0.00000000       0.11111111       0.00000000 </v>
   <v name="genvec3">      0.00000000       0.00000000       0.20000000 </v>
   <v name="shift">      0.00000000       0.00000000       0.00000000 </v>
  </generation>
  <varray name="kpointlist" >
   <v>       0.00000000       0.00000000       0.00000000 </v>
   <v>       0.11111111       0.00000000       0.00000000 </v>
   <v>       0.22222222       0.00000000       0.00000000 </v>
   <v>       0.33333333       0.00000000       0.00000000 </v>
   <v>       0.44444444       0.00000000       0.00000000 </v>
   <v>       0.11111111       0.11111111       0.00000000 </v>
   <v>       0.22222222       0.11111111       0.00000000 </v>
   <v>       0.33333333       0.11111111       0.00000000 </v>
   <v>       0.44444444       0.11111111       0.00000000 </v>
   <v>       0.22222222       0.22222222       0.00000000 </v>
   <v>       0.33333333       0.22222222       0.00000000 </v>
   <v>       0.33333333       0.33333333       0.00000000 </v>
   <v>       0.00000000       0.00000000       0.20000000 </v>
   <v>       0.11111111       0.00000000       0.20000000 </v>
   <v>       0.22222222       0.00000000       0.20000000 </v>
   <v>       0.33333333       0.00000000       0.20000000 </v>
   <v>       0.44444444       0.00000000       0.20000000 </v>
   <v>       0.11111111       0.11111111       0.20000000 </v>
   <v>       0.22222222       0.11111111       0.20000000 </v>
   <v>       0.33333333       0.11111111       0.20000000 </v>
   <v>       0.44444444       0.11111111       0.20000000 </v>
   <v>       0.22222222       0.22222222       0.20000000 </v>
   <v>       0.33333333       0.22222222       0.20000000 </v>
   <v>       0.33333333       0.33333333       0.20000000 </v>
   <v>       0.00000000       0.00000000       0.40000000 </v>
   <v>       0.11111111       0.00000000       0.40000000 </v>
   <v>       0.22222222       0.00000000       0.40000000 </v>
   <v>       0.33333333       0.00000000       0.40000000 </v>
   <v>       0.44444444       0.00000000       0.40000000 </v>
   <v>       0.11111111       0.11111111       0.40000000 </v>
   <v>       0.22222222       0.11111111       0.40000000 </v>
   <v>       0.33333333       0.11111111       0.40000000 </v>
   <v>       0.44444444       0.11111111       0.40000000 </v>
   <v>       0.22222222       0.22222222       0.40000000 </v>
   <v>       0.33333333       0.22222222       0.40000000 </v>
   <v>       0.33333333       0.33333333       0.40000000 </v>
  </varray>
  <varray name="weights" >
   <v>       0.00246914 </v>
   <v>       0.01481481 </v>
   <v>       0.01481481 </v>
   <v>       0.01481481 </v>
   <v>       0.01481481 </v>
   <v>       0.01481481 </v>
   <v>       0.02962963 </v>
   <v>       0.02962963 </v>
   <v>       0.01481481 </v>
   <v>       0.01481481 </v>
   <v>       0.02962963 </v>
   <v>       0.00493827 </v>
   <v>       0.00493827 </v>
   <v>       0.02962963 </v>
   <v>       0.02962963 </v>
   <v>       0.02962963 </v>
   <v>       0.02962963 </v>
   <v>       0.02962963 </v>
   <v>       0.05925926 </v>
   <v>       0.05925926 </v>
   <v>       0.02962963 </v>
   <v>       0.02962963 </v>
   <v>       0.05925926 </v>
   <v>       0.00987654 </v>
   <v>       0.00493827 </v>
   <v>       0.02962963 </v>
   <v>       0.02962963 </v>
   <v>       0.02962963 </v>
   <v>       0.02962963 </v>
   <v>       0.02962963 </v>
   <v>       0.05925926 </v>
   <v>       0.05925926 </v>
   <v>       0.02962963 </v>
   <v>       0.02962963 </v>
   <v>       0.05925926 </v>
   <v>       0.00987654 </v>
  </varray>
 </kpoints>
 <parameters>
  <separator name="general" >
   <i type="string" name="SYSTEM">unknown system</i>
   <i type="logical" name="LCOMPAT"> F  </i>
  </separator>
  <separator name="electronic" >
   <i type="string" name="PREC">accura</i>
   <i name="ENMAX">    450.00000000</i>
   <i name="ENAUG">    454.73400000</i>
   <i name="EDIFF">      0.00000040</i>
   <i type="int" name="IALGO">    38</i>
   <i type="int" name="IWAVPR">    11</i>
   <i type="int" name="NBANDS">     6</i>
   <i type="int" name="NBANDSLOW">    -1</i>
   <i type="int" name="NBANDSHIGH">    -1</i>
   <i name="NELECT">      4.00000000</i>
   <i type="int" name="TURBO">     0</i>
   <i type="int" name="IRESTART">     0</i>
   <i type="int" name="NREBOOT">     0</i>
   <i type="int" name="NMIN">     0</i>
   <i name="EREF">      0.00000000</i>
   <separator name="electronic smearing" >
    <i type="int" name="ISMEAR">     1</i>
    <i name="SIGMA">      0.20000000</i>
    <i name="KSPACING">      0.50000000</i>
    <i type="logical" name="KGAMMA"> T  </i>
    <i type="logical" name="KBLOWUP"> T  </i>
   </separator>
   <separator name="electronic projectors" >
    <i type="logical" name="LREAL"> T  </i>
    <v name="ROPT">     -0.00025000</v>
    <i type="int" name="LMAXPAW">  -100</i>
    <i type="int" name="LMAXMIX">     2</i>
    <i type="logical" name="NLSPLINE"> F  </i>
   </separator>
   <separator name="electronic startup" >
    <i type="int" name="ISTART">     1</i>
    <i type="int" name="ICHARG">     1</i>
    <i type="int" name="INIWAV">     1</i>
   </separator>
   <separator name="electronic spin" >
    <i type="int" name="ISPIN">     1</i>
    <i type="logical" name="LNONCOLLINEAR"> F  </i>
    <v name="MAGMOM">      1.00000000      1.00000000</v>
    <i name="NUPDOWN">     -1.00000000</i>
    <i type="logical" name="LSORBIT"> F  </i>
    <v name="SAXIS">      0.00000000      0.00000000      1.00000000</v>
    <i type="logical" name="LSPIRAL"> F  </i>
    <v name="QSPIRAL">      0.00000000      0.00000000      0.00000000</v>
    <i type="logical" name="LZEROZ"> F  </i>
   </separator>
   <separator name="electronic exchange-correlation" >
    <i type="logical" name="LASPH"> T  </i>
    <i type="logical" name="LMETAGGA"> F  </i>
   </separator>
   <separator name="electronic convergence" >
    <i type="int" name="NELM">   120</i>
    <i type="int" name="NELMDL">     0</i>
    <i type="int" name="NELMIN">     2</i>
    <i name="ENINI">    450.00000000</i>
    <separator name="electronic convergence detail" >
     <i type="logical" name="LDIAG"> T  </i>
     <i type="logical" name="LSUBROT"> F  </i>
     <i name="WEIMIN">      0.00100000</i>
     <i name="EBREAK">      0.00000002</i>
     <i name="DEPER">      0.30000000</i>
     <i type="int" name="NRMM">     4</i>
     <i name="TIME">      0.40000000</i>
    </separator>
   </separator>
   <separator name="electronic mixer" >
    <i name="AMIX">      0.40000000</i>
    <i name="BMIX">      1.00000000</i>
    <i name="AMIN">      0.10000000</i>
    <i name="AMIX_MAG">      1.60000000</i>
    <i name="BMIX_MAG">      1.00000000</i>
    <separator name="electronic mixer details" >
     <i type="int" name="IMIX">     4</i>
     <i type="logical" name="MIXFIRST"> F  </i>
     <i type="int" name="MAXMIX">   -45</i>
     <i name="WC">    100.00000000</i>
     <i type="int" name="INIMIX">     1</i>
     <i type="int" name="MIXPRE">     1</i>
     <i type="int" name="MREMOVE">     5</i>
    </separator>
   </separator>
   <separator name="electronic dipolcorrection" >
    <i type="logical" name="LDIPOL"> F  </i>
    <i type="logical" name="LMONO"> F  </i>
    <i type="int" name="IDIPOL">     0</i>
    <i name="EPSILON">      1.00000000</i>
    <v name="DIPOL">   -100.00000000   -100.00000000   -100.00000000</v>
    <i name="EFIELD">      0.00000000</i>
   </separator>
  </separator>
  <separator name="grids" >
   <i type="int" name="NGX">    24</i>
   <i type="int" name="NGY">    24</i>
   <i type="int" name="NGZ">    36</i>
   <i type="int" name="NGXF">    48</i>
   <i type="int" name="NGYF">    48</i>
   <i type="int" name="NGZF">    72</i>
   <i type="logical" name="ADDGRID"> F  </i>
  </separator>
  <separator name="ionic" >
   <i type="int" name="NSW">   100</i>
   <i type="int" name="IBRION">     2</i>
   <i type="int" name="MDALGO">     0</i>
   <i type="int" name="ISIF">     3</i>
   <i name="PSTRESS">      0.00000000</i>
   <i name="EDIFFG">     -0.01000000</i>
   <i type="int" name="NFREE">     1</i>
   <i name="POTIM">      0.50000000</i>
   <i name="SMASS">     -3.00000000</i>
   <i name="SCALEE">      1.00000000</i>
  </separator>
  <separator name="ionic md" >
   <i name="TEBEG">      0.00010000</i>
   <i name="TEEND">      0.00010000</i>
   <i type="int" name="NBLOCK">     1</i>
   <i type="int" name="KBLOCK">   100</i>
   <i type="int" name="NPACO">   256</i>
   <i name="APACO">     16.00000000</i>
  </separator>
  <separator name="symmetry" >
   <i type="int" name="ISYM">     2</i>
   <i name="SYMPREC">      0.00001000</i>
  </separator>
  <separator name="dos" >
   <i type="int" name="LORBIT">    11</i>
   <v name="RWIGS">     -1.00000000</v>
   <i type="int" name="NEDOS">  2000</i>
   <i name="EMIN">     10.00000000</i>
   <i name="EMAX">    -10.00000000</i>
   <i name="EFERMI">      0.00000000</i>
  </separator>
  <separator name="writing" >
   <i type="int" name="NWRITE">     2</i>
   <i type="logical" name="LWAVE"> T  </i>
   <i type="logical" name="LDOWNSAMPLE"> F  </i>
   <i type="logical" name="LCHARG"> T  </i>
   <i type="logical" name="LPARD"> F  </i>
   <i type="logical" name="LVTOT"> F  </i>
   <i type="logical" name="LVHAR"> F  </i>
   <i type="logical" name="LELF"> F  </i>
   <i type="logical" name="LOPTICS"> F  </i>
   <v name="STM">      0.00000000      0.00000000      0.00000000      0.00000000      0.00000000      0.00000000      0.00000000</v>
  </separator>
  <separator name="performance" >
   <i type="int" name="NPAR">     6</i>
   <i type="int" name="NSIM">     4</i>
   <i type="int" name="NBLK">    -1</i>
   <i type="logical" name="LPLANE"> T  </i>
   <i type="logical" name="LSCALAPACK"> T  </i>
   <i type="logical" name="LSCAAWARE"> F  </i>
   <i type="logical" name="LSCALU"> F  </i>
   <i type="logical" name="LASYNC"> F  </i>
   <i type="logical" name="LORBITALREAL"> F  </i>
  </separator>
  <separator name="miscellaneous" >
   <i type="int" name="IDIOT">     3</i>
   <i type="int" name="PHON_NSTRUCT">    -1</i>
   <i type="logical" name="LMUSIC"> F  </i>
   <v name="POMASS">     24.30500000</v>
   <v name="DARWINR">      0.00000000</v>
   <v name="DARWINV">      1.00000000</v>
   <i type="logical" name="LCORR"> T  </i>
  </separator>
  <i type="logical" name="GGA_COMPAT"> T  </i>
  <i type="logical" name="LBERRY"> F  </i>
  <i type="int" name="ICORELEVEL">     0</i>
  <i type="logical" name="LDAU"> F  </i>
  <i type="int" name="I_CONSTRAINED_M">     0</i>
  <separator name="electronic exchange-correlation" >
   <i type="string" name="GGA">PS</i>
   <i type="int" name="VOSKOWN">     0</i>
   <i type="logical" name="LHFCALC"> F  </i>
   <i type="string" name="PRECFOCK"></i>
   <i type="logical" name="LSYMGRAD"> F  </i>
   <i type="logical" name="LHFONE"> F  </i>
   <i type="logical" name="LRHFCALC"> F  </i>
   <i type="logical" name="LTHOMAS"> F  </i>
   <i type="logical" name="LMODELHF"> F  </i>
   <i type="logical" name="LFOCKACE"> F  </i>
   <i name="ENCUT4O">     -1.00000000</i>
   <i type="int" name="EXXOEP">     0</i>
   <i type="int" name="FOURORBIT">     0</i>
   <i name="AEXX">      0.00000000</i>
   <i name="HFALPHA">      0.00000000</i>
   <i name="MCALPHA">      0.00000000</i>
   <i name="ALDAX">      1.00000000</i>
   <i name="AGGAX">      1.00000000</i>
   <i name="ALDAC">      1.00000000</i>
   <i name="AGGAC">      1.00000000</i>
   <i type="int" name="NKREDX">     1</i>
   <i type="int" name="NKREDY">     1</i>
   <i type="int" name="NKREDZ">     1</i>
   <i type="logical" name="SHIFTRED"> F  </i>
   <i type="logical" name="ODDONLY"> F  </i>
   <i type="logical" name="EVENONLY"> F  </i>
   <i type="int" name="LMAXFOCK">     0</i>
   <i type="int" name="NMAXFOCKAE">     0</i>
   <i type="logical" name="LFOCKAEDFT"> F  </i>
   <i name="HFSCREEN">      0.00000000</i>
   <i name="HFSCREENC">      0.00000000</i>
   <i type="int" name="NBANDSGWLOW">     0</i>
  </separator>
  <separator name="vdW DFT" >
   <i type="logical" name="LUSE_VDW"> F  </i>
   <i name="Zab_VDW">     -0.84910000</i>
   <i name="PARAM1">      0.12340000</i>
   <i name="PARAM2">      1.00000000</i>
   <i name="PARAM3">      0.00000000</i>
  </separator>
  <separator name="model GW" >
   <i type="int" name="MODEL_GW">     0</i>
   <i name="MODEL_EPS0">     13.47105749</i>
   <i name="MODEL_ALPHA">      1.00000000</i>
  </separator>
  <separator name="linear response parameters" >
   <i type="logical" name="LEPSILON"> F  </i>
   <i type="logical" name="LRPA"> F  </i>
   <i type="logical" name="LNABLA"> F  </i>
   <i type="logical" name="LVEL"> F  </i>
   <i type="int" name="KINTER">     0</i>
   <i name="CSHIFT">      0.10000000</i>
   <i name="OMEGAMAX">     -1.00000000</i>
   <i name="DEG_THRESHOLD">      0.00200000</i>
   <i name="RTIME">     -0.10000000</i>
   <i name="WPLASMAI">      0.00000000</i>
   <v name="DFIELD">      0.00000000      0.00000000      0.00000000</v>
   <v name="WPLASMA">      0.00000000      0.00000000      0.00000000      0.00000000      0.00000000      0.00000000      0.00000000      0.00000000      0.00000000</v>
  </separator>
  <separator name="orbital magnetization" >
   <i type="logical" name="NUCIND"> F  </i>
   <v name="MAGPOS">      0.00000000      0.00000000      0.00000000</v>
   <i type="logical" name="LNICSALL"> T  </i>
   <i type="logical" name="ORBITALMAG"> F  </i>
   <i type="logical" name="LMAGBLOCH"> F  </i>
   <i type="logical" name="LCHIMAG"> F  </i>
   <i type="logical" name="LGAUGE"> T  </i>
   <i type="int" name="MAGATOM">     0</i>
   <v name="MAGDIPOL">      0.00000000      0.00000000      0.00000000</v>
   <v name="AVECCONST">      0.00000000      0.00000000      0.00000000</v>
  </separator>
  <separator name="response functions" >
   <i type="logical" name="LFINITE_TEMPERATURE"> F  </i>
   <i type="logical" name="LADDER"> F  </i>
   <i type="logical" name="LRPAFORCE"> F  </i>
   <i type="logical" name="LFXC"> F  </i>
   <i type="logical" name="LHARTREE"> T  </i>
   <i type="int" name="IBSE">     0</i>
   <v type="int" name="KPOINT">    -1     0     0     0</v>
   <i type="logical" name="LTCTC"> F  </i>
   <i type="logical" name="LTCTE"> F  </i>
   <i type="logical" name="LTETE"> F  </i>
   <i type="logical" name="LTRIPLET"> F  </i>
   <i type="logical" name="LFXCEPS"> F  </i>
   <i type="logical" name="LFXHEG"> F  </i>
   <i type="int" name="NATURALO">     2</i>
   <i type="logical" name="LHOLEGF"> F  </i>
   <i type="logical" name="L2ORDER"> F  </i>
   <i type="logical" name="LDMP1"> F  </i>
   <i type="logical" name="LMP2LT"> F  </i>
   <i type="logical" name="LSMP2LT"> F  </i>
   <i type="logical" name="LGWLF"> F  </i>
   <i name="ENCUTGW">     -2.00000000</i>
   <i name="ENCUTGWSOFT">     -2.00000000</i>
   <i name="ENCUTLF">     -1.00000000</i>
   <i type="logical" name="LESF_SPLINES"> F  </i>
   <i type="int" name="LMAXMP2">    -1</i>
   <i name="SCISSOR">      0.00000000</i>
   <i type="int" name="NOMEGA">     0</i>
   <i type="int" name="NOMEGAR">     0</i>
   <i type="int" name="NBANDSGW">    -1</i>
   <i type="int" name="NBANDSO">    -1</i>
   <i type="int" name="NBANDSV">    -1</i>
   <i type="int" name="NELM">   120</i>
   <i type="int" name="NELMHF">     1</i>
   <i type="int" name="DIM">     3</i>
   <i type="int" name="IESPILON">     4</i>
   <i type="int" name="ANTIRES">     0</i>
   <i name="OMEGAMAX">    -30.00000000</i>
   <i name="OMEGAMIN">    -30.00000000</i>
   <i name="OMEGATL">   -200.00000000</i>
   <i type="int" name="OMEGAGRID">     0</i>
   <i name="CSHIFT">     -0.10000000</i>
   <i type="logical" name="LSELFENERGY"> F  </i>
   <i type="logical" name="LSPECTRAL"> F  </i>
   <i type="logical" name="LSPECTRALGW"> F  </i>
   <i type="logical" name="LSINGLES"> F  </i>
   <i type="logical" name="LFERMIGW"> F  </i>
   <i type="logical" name="ODDONLYGW"> F  </i>
   <i type="logical" name="EVENONLYGW"> F  </i>
   <i type="int" name="NKREDLFX">     1</i>
   <i type="int" name="NKREDLFY">     1</i>
   <i type="int" name="NKREDLFZ">     1</i>
   <i type="int" name="MAXMEM">  2800</i>
   <i type="int" name="TELESCOPE">     0</i>
   <i type="int" name="NTAUPAR">    -1</i>
   <i type="int" name="NOMEGAPAR">    -1</i>
   <i name="DAMP_NEWTON">      0.80000001</i>
   <i name="LAMBDA">      1.00000000</i>
  </separator>
  <separator name="External order field" >
   <i name="OFIELD_KAPPA">      0.00000000</i>
   <v name="OFIELD_K">      0.00000000      0.00000000      0.00000000</v>
   <i name="OFIELD_Q6_NEAR">      0.00000000</i>
   <i name="OFIELD_Q6_FAR">      0.00000000</i>
   <i name="OFIELD_A">      0.00000000</i>
  </separator>
 </parameters>
 <atominfo>
  <atoms>       2 </atoms>
  <types>       1 </types>
  <array name="atoms" >
   <dimension dim="1">ion</dimension>
   <field type="string">element</field>
   <field type="int">atomtype</field>
   <set>
    <rc><c>Mg</c><c>   1</c></rc>
    <rc><c>Mg</c><c>   1</c></rc>
   </set>
  </array>
  <array name="atomtypes" >
   <dimension dim="1">type</dimension>
   <field type="int">atomspertype</field>
   <field type="string">element</field>
   <field>mass</field>
   <field>valence</field>
   <field type="string">pseudopotential</field>
   <set>
    <rc><c>   2</c><c>Mg</c><c>     24.30500000</c><c>      2.00000000</c><c>  PAW_PBE Mg 13Apr2007                  </c></rc>
   </set>
  </array>
 </atominfo>
 <structure name="initialpos" >
  <crystal>
   <varray name="basis" >
    <v>       1.58515713      -2.74557209       0.00000000 </v>
    <v>       1.58515713       2.74557209       0.00000000 </v>
    <v>       0.00000000       0.00000000       5.15875934 </v>
   </varray>
   <i name="volume">     44.90352497 </i>
   <varray name="rec_basis" >
    <v>       0.31542614      -0.18211141       0.00000000 </v>
    <v>       0.31542614       0.18211141       0.00000000 </v>
    <v>       0.00000000       0.00000000       0.19384506 </v>
   </varray>
  </crystal>
  <varray name="positions" >
   <v>       0.33333300       0.66666700       0.25000000 </v>
   <v>       0.66666700       0.33333300       0.75000000 </v>
  </varray>
 </structure>
 <calculation>
  <scstep>
   <time name="dav">    0.08    0.08</time>
   <time name="total">    0.22    0.23</time>
   <energy>
    <i name="alphaZ">      4.00910263 </i>
    <i name="ewald">    -58.96851613 </i>
    <i name="hartreedc">     -0.05643976 </i>
    <i name="XCdc">    -95.35364632 </i>
    <i name="pawpsdc">    128.09906279 </i>
    <i name="pawaedc">    -26.54124696 </i>
    <i name="eentropy">      0.00124617 </i>
    <i name="bandstr">     -0.21132609 </i>
    <i name="atom">     45.55994257 </i>
    <i name="e_fr_energy">     -3.46182109 </i>
    <i name="e_wo_entrp">     -3.46306727 </i>
    <i name="e_0_energy">     -3.46223649 </i>
   </energy>
  </scstep>
  <scstep>
   <time name="dav">    0.07    0.07</time>
   <time name="total">    0.23    0.23</time>
   <energy>
    <i name="e_fr_energy">     -3.45124203 </i>
    <i name="e_wo_entrp">     -3.45242069 </i>
    <i name="e_0_energy">     -3.45163492 </i>
   </energy>
  </scstep>
  <scstep>
   <time name="dav">    0.06    0.06</time>
   <time name="total">    0.17    0.17</time>
   <energy>
    <i name="e_fr_energy">     -3.44165564 </i>
    <i name="e_wo_entrp">     -3.44268499 </i>
    <i name="e_0_energy">     -3.44199876 </i>
   </energy>
  </scstep>
  <scstep>
   <time name="dav">    0.07    0.07</time>
   <time name="total">    0.19    0.19</time>
   <energy>
    <i name="e_fr_energy">     -3.44166111 </i>
    <i name="e_wo_entrp">     -3.44268543 </i>
    <i name="e_0_energy">     -3.44200255 </i>
   </energy>
  </scstep>
  <scstep>
   <time name="dav">    0.06    0.06</time>
   <time name="total">    0.18    0.18</time>
   <energy>
    <i name="e_fr_energy">     -3.44166046 </i>
    <i name="e_wo_entrp">     -3.44268206 </i>
    <i name="e_0_energy">     -3.44200099 </i>
   </energy>
  </scstep>
  <scstep>
   <time name="dav">    0.03    0.03</time>
   <time name="total">    0.14    0.14</time>
   <energy>
    <i name="alphaZ">      4.00910263 </i>
    <i name="ewald">    -58.96851613 </i>
    <i name="hartreedc">     -0.12561101 </i>
    <i name="XCdc">    -95.18152556 </i>
    <i name="pawpsdc">    116.71439554 </i>
    <i name="pawaedc">    -15.17161467 </i>
    <i name="eentropy">      0.00102156 </i>
    <i name="bandstr">     -0.27885526 </i>
    <i name="atom">     45.55994257 </i>
    <i name="e_fr_energy">     -3.44166033 </i>
    <i name="e_wo_entrp">     -3.44268189 </i>
    <i name="e_0_energy">     -3.44200085 </i>
   </energy>
  </scstep>
  <structure>
   <crystal>
    <varray name="basis" >
     <v>       1.58515713      -2.74557209       0.00000000 </v>
     <v>       1.58515713       2.74557209       0.00000000 </v>
     <v>       0.00000000       0.00000000       5.15875934 </v>
    </varray>
    <i name="volume">     44.90352497 </i>
    <varray name="rec_basis" >
     <v>       0.31542614      -0.18211141       0.00000000 </v>
     <v>       0.31542614       0.18211141       0.00000000 </v>
     <v>       0.00000000       0.00000000       0.19384506 </v>
    </varray>
   </crystal>
   <varray name="positions" >
    <v>       0.33333300       0.66666700       0.25000000 </v>
    <v>       0.66666700       0.33333300       0.75000000 </v>
   </varray>
  </structure>
  <varray name="forces" >
   <v>      -0.00000000       0.00000000       0.00000000 </v>
   <v>       0.00000000      -0.00000000       0.00000000 </v>
  </varray>
  <varray name="stress" >
   <v>       0.24951662      -0.00000000      -0.00000000 </v>
   <v>       0.00000000       0.24951651       0.00000000 </v>
   <v>      -0.00000000      -0.00000000       0.15270070 </v>
  </varray>
  <energy>
   <i name="e_fr_energy">     -3.44166033 </i>
   <i name="e_wo_entrp">     -3.44268189 </i>
   <i name="e_0_energy">     -3.44200085 </i>
  </energy>
  <time name="totalsc">    1.61    1.71</time>
  <eigenvalues>
   <array>
    <dimension dim="1">band</dimension>
    <dimension dim="2">kpoint</dimension>
    <dimension dim="3">spin</dimension>
    <field>eigene</field>
    <field>occ</field>
    <set>
     <set comment="spin 1">
      <set comment="kpoint 1">
       <r>   -4.3172    1.0000 </r>
       <r>    0.9746    1.0000 </r>
       <r>    1.4502    1.0000 </r>
       <r>   13.7874    0.0000 </r>
       <r>   13.7874    0.0000 </r>
       <r>   13.9560    0.0000 </r>
      </set>
      <set comment="kpoint 2">
       <r>   -4.0703    1.0000 </r>
       <r>    1.1997    1.0000 </r>
       <r>    1.6891    1.0000 </r>
       <r>   10.6390    0.0000 </r>
       <r>   12.2297    0.0000 </r>
       <r>   13.0010    0.0000 </r>
      </set>
      <set comment="kpoint 3">
       <r>   -3.3336    1.0000 </r>
       <r>    1.8759    1.0000 </r>
       <r>    2.3858    1.0329 </r>
       <r>    7.3455   -0.0000 </r>
       <r>   10.9971    0.0000 </r>
       <r>   11.2717    0.0000 </r>
      </set>
      <set comment="kpoint 4">
       <r>   -2.1188    1.0000 </r>
       <r>    3.0047   -0.0173 </r>
       <r>    3.2874   -0.0000 </r>
       <r>    4.6580   -0.0000 </r>
       <r>    9.1494    0.0000 </r>
       <r>    9.3186    0.0000 </r>
      </set>
      <set comment="kpoint 5">
       <r>   -0.4464    1.0000 </r>
       <r>    1.6373    1.0000 </r>
       <r>    4.5832   -0.0000 </r>
       <r>    5.3255   -0.0000 </r>
       <r>    6.6559   -0.0000 </r>
       <r>    7.2491   -0.0000 </r>
      </set>
      <set comment="kpoint 6">
       <r>   -3.5785    1.0000 </r>
       <r>    1.6504    1.0000 </r>
       <r>    2.1582    1.0011 </r>
       <r>    8.9226    0.0000 </r>
       <r>    9.3049    0.0000 </r>
       <r>   13.5630    0.0000 </r>
      </set>
      <set comment="kpoint 7">
       <r>   -2.6028    1.0000 </r>
       <r>    2.5530    0.8862 </r>
       <r>    3.0340   -0.0117 </r>
       <r>    6.0111   -0.0000 </r>
       <r>    7.9887   -0.0000 </r>
       <r>   10.7134    0.0000 </r>
      </set>
      <set comment="kpoint 8">
       <r>   -1.1588    1.0000 </r>
       <r>    2.9160   -0.0349 </r>
       <r>    3.9084   -0.0000 </r>
       <r>    4.7235   -0.0000 </r>
       <r>    7.1581   -0.0000 </r>
       <r>    8.0107   -0.0000 </r>
      </set>
      <set comment="kpoint 9">
       <r>    0.7036    1.0000 </r>
       <r>    0.7470    1.0000 </r>
       <r>    5.5621   -0.0000 </r>
       <r>    5.9014   -0.0000 </r>
       <r>    6.0485   -0.0000 </r>
       <r>    6.1877   -0.0000 </r>
      </set>
      <set comment="kpoint 10">
       <r>   -1.3977    1.0000 </r>
       <r>    3.6827   -0.0000 </r>
       <r>    3.8135   -0.0000 </r>
       <r>    4.8352   -0.0000 </r>
       <r>    5.7133   -0.0000 </r>
       <r>    9.5541    0.0000 </r>
      </set>
      <set comment="kpoint 11">
       <r>    0.2602    1.0000 </r>
       <r>    2.3232    1.0195 </r>
       <r>    4.2519   -0.0000 </r>
       <r>    5.2590   -0.0000 </r>
       <r>    6.2455   -0.0000 </r>
       <r>    7.3228   -0.0000 </r>
      </set>
      <set comment="kpoint 12">
       <r>    2.0615    1.0001 </r>
       <r>    2.1289    1.0006 </r>
       <r>    2.1289    1.0006 </r>
       <r>    6.8881   -0.0000 </r>
       <r>    6.8881   -0.0000 </r>
       <r>    7.0696   -0.0000 </r>
      </set>
      <set comment="kpoint 13">
       <r>   -4.0905    1.0000 </r>
       <r>   -0.7571    1.0000 </r>
       <r>    3.5730   -0.0000 </r>
       <r>   12.5895    0.0000 </r>
       <r>   13.9609    0.0000 </r>
       <r>   13.9609    0.0000 </r>
      </set>
      <set comment="kpoint 14">
       <r>   -3.8442    1.0000 </r>
       <r>   -0.5201    1.0000 </r>
       <r>    3.7970   -0.0000 </r>
       <r>   10.8050    0.0000 </r>
       <r>   12.4154    0.0000 </r>
       <r>   12.6970    0.0000 </r>
      </set>
      <set comment="kpoint 15">
       <r>   -3.1093    1.0000 </r>
       <r>    0.1863    1.0000 </r>
       <r>    4.4423   -0.0000 </r>
       <r>    7.5601   -0.0000 </r>
       <r>   10.3317    0.0000 </r>
       <r>   11.1857    0.0000 </r>
      </set>
      <set comment="kpoint 16">
       <r>   -1.8975    1.0000 </r>
       <r>    1.3399    1.0000 </r>
       <r>    4.3686   -0.0000 </r>
       <r>    5.8084   -0.0000 </r>
       <r>    7.5733   -0.0000 </r>
       <r>   10.3657    0.0000 </r>
      </set>
      <set comment="kpoint 17">
       <r>   -0.2305    1.0000 </r>
       <r>    1.8036    1.0000 </r>
       <r>    3.1076   -0.0034 </r>
       <r>    5.0762   -0.0000 </r>
       <r>    7.2444   -0.0000 </r>
       <r>    9.0275    0.0000 </r>
      </set>
      <set comment="kpoint 18">
       <r>   -3.3536    1.0000 </r>
       <r>   -0.0483    1.0000 </r>
       <r>    4.2352   -0.0000 </r>
       <r>    9.1050    0.0000 </r>
       <r>    9.4860    0.0000 </r>
       <r>   12.1669    0.0000 </r>
      </set>
      <set comment="kpoint 19">
       <r>   -2.3802    1.0000 </r>
       <r>    0.8843    1.0000 </r>
       <r>    4.9791   -0.0000 </r>
       <r>    6.2933   -0.0000 </r>
       <r>    8.0890   -0.0000 </r>
       <r>    9.4600    0.0000 </r>
      </set>
      <set comment="kpoint 20">
       <r>   -0.9402    1.0000 </r>
       <r>    2.1917    1.0023 </r>
       <r>    3.3897   -0.0000 </r>
       <r>    6.2874   -0.0000 </r>
       <r>    6.4597   -0.0000 </r>
       <r>    7.9775   -0.0000 </r>
      </set>
      <set comment="kpoint 21">
       <r>    0.9089    1.0000 </r>
       <r>    0.9577    1.0000 </r>
       <r>    4.1696   -0.0000 </r>
       <r>    4.1767   -0.0000 </r>
       <r>    7.0214   -0.0000 </r>
       <r>    8.2523    0.0000 </r>
      </set>
      <set comment="kpoint 22">
       <r>   -1.1784    1.0000 </r>
       <r>    2.0164    1.0000 </r>
       <r>    5.0315   -0.0000 </r>
       <r>    5.0318   -0.0000 </r>
       <r>    6.6203   -0.0000 </r>
       <r>    8.4291    0.0000 </r>
      </set>
      <set comment="kpoint 23">
       <r>    0.4735    1.0000 </r>
       <r>    2.4802    1.0104 </r>
       <r>    3.6821   -0.0000 </r>
       <r>    4.6849   -0.0000 </r>
       <r>    5.9154   -0.0000 </r>
       <r>    7.6396   -0.0000 </r>
      </set>
      <set comment="kpoint 24">
       <r>    2.2704    1.0096 </r>
       <r>    2.3166    1.0180 </r>
       <r>    2.3166    1.0180 </r>
       <r>    5.4067   -0.0000 </r>
       <r>    5.7777   -0.0000 </r>
       <r>    5.7777   -0.0000 </r>
      </set>
      <set comment="kpoint 25">
       <r>   -3.4138    1.0000 </r>
       <r>   -2.2970    1.0000 </r>
       <r>    6.2841   -0.0000 </r>
       <r>    9.3355    0.0000 </r>
       <r>   14.3957    0.0000 </r>
       <r>   14.3957    0.0000 </r>
      </set>
      <set comment="kpoint 26">
       <r>   -3.1693    1.0000 </r>
       <r>   -2.0554    1.0000 </r>
       <r>    6.4914   -0.0000 </r>
       <r>    9.4916    0.0000 </r>
       <r>   11.4718    0.0000 </r>
       <r>   12.2883    0.0000 </r>
      </set>
      <set comment="kpoint 27">
       <r>   -2.4397    1.0000 </r>
       <r>   -1.3349    1.0000 </r>
       <r>    6.9841   -0.0000 </r>
       <r>    8.2180    0.0000 </r>
       <r>    9.0139    0.0000 </r>
       <r>   10.2948    0.0000 </r>
      </set>
      <set comment="kpoint 28">
       <r>   -1.2372    1.0000 </r>
       <r>   -0.1495    1.0000 </r>
       <r>    5.0794   -0.0000 </r>
       <r>    6.1120   -0.0000 </r>
       <r>    8.3559    0.0000 </r>
       <r>   10.9324    0.0000 </r>
      </set>
      <set comment="kpoint 29">
       <r>    0.4100    1.0000 </r>
       <r>    1.4198    1.0000 </r>
       <r>    2.6593    0.4989 </r>
       <r>    3.6498   -0.0000 </r>
       <r>    9.6170    0.0000 </r>
       <r>   10.5219    0.0000 </r>
      </set>
      <set comment="kpoint 30">
       <r>   -2.6823    1.0000 </r>
       <r>   -1.5744    1.0000 </r>
       <r>    6.8772   -0.0000 </r>
       <r>    9.4547    0.0000 </r>
       <r>    9.9023    0.0000 </r>
       <r>    9.9332    0.0000 </r>
      </set>
      <set comment="kpoint 31">
       <r>   -1.7161    1.0000 </r>
       <r>   -0.6210    1.0000 </r>
       <r>    6.5511   -0.0000 </r>
       <r>    7.5302   -0.0000 </r>
       <r>    7.8205   -0.0000 </r>
       <r>    9.1504    0.0000 </r>
      </set>
      <set comment="kpoint 32">
       <r>   -0.2887    1.0000 </r>
       <r>    0.7792    1.0000 </r>
       <r>    3.9653   -0.0000 </r>
       <r>    4.9838   -0.0000 </r>
       <r>    7.9626   -0.0000 </r>
       <r>    8.9213    0.0000 </r>
      </set>
      <set comment="kpoint 33">
       <r>    1.4899    1.0000 </r>
       <r>    1.5424    1.0000 </r>
       <r>    2.7613    0.1238 </r>
       <r>    2.8156    0.0145 </r>
       <r>    7.8416   -0.0000 </r>
       <r>    8.8361    0.0000 </r>
      </set>
      <set comment="kpoint 34">
       <r>   -0.5242    1.0000 </r>
       <r>    0.5515    1.0000 </r>
       <r>    5.5770   -0.0000 </r>
       <r>    5.7257   -0.0000 </r>
       <r>    6.8371   -0.0000 </r>
       <r>    7.1059   -0.0000 </r>
      </set>
      <set comment="kpoint 35">
       <r>    1.1044    1.0000 </r>
       <r>    2.0896    1.0002 </r>
       <r>    3.3281   -0.0000 </r>
       <r>    4.2193   -0.0000 </r>
       <r>    5.5651   -0.0000 </r>
       <r>    6.4938   -0.0000 </r>
      </set>
      <set comment="kpoint 36">
       <r>    2.7795    0.0789 </r>
       <r>    2.7795    0.0789 </r>
       <r>    2.8974   -0.0353 </r>
       <r>    3.9433   -0.0000 </r>
       <r>    4.5594   -0.0000 </r>
       <r>    4.5594   -0.0000 </r>
      </set>
     </set>
    </set>
   </array>
  </eigenvalues>
  <separator name="orbital magnetization" >
   <v name="MAGDIPOLOUT">      0.00000000      0.00000000      0.00000000</v>
  </separator>
  <dos>
   <i name="efermi">      2.65902952 </i>
   <total>
    <array>
     <dimension dim="1">gridpoints</dimension>
     <dimension dim="2">spin</dimension>
     <field>energy</field>
     <field>total</field>
     <field>integrated</field>
     <set>
      <set comment="spin 1">
       <r>    -6.3172     0.0000     0.0000 </r>
       <r>    -6.3058     0.0000     0.0000 </r>
       <r>    -6.2944     0.0000     0.0000 </r>
       <r>    -6.2831     0.0000     0.0000 </r>
       <r>    -6.2717     0.0000     0.0000 </r>
       <r>    -6.2603     0.0000     0.0000 </r>
       <r>    -6.2490     0.0000     0.0000 </r>
       <r>    -6.2376     0.0000     0.0000 </r>
       <r>    -6.2263     0.0000     0.0000 </r>
       <r>    -6.2149     0.0000     0.0000 </r>
       <r>    -6.2035     0.0000     0.0000 </r>
       <r>    -6.1922     0.0000     0.0000 </r>
       <r>    -6.1808     0.0000     0.0000 </r>
       <r>    -6.1694     0.0000     0.0000 </r>
       <r>    -6.1581     0.0000     0.0000 </r>
       <r>    -6.1467     0.0000     0.0000 </r>
       <r>    -6.1354     0.0000     0.0000 </r>
       <r>    -6.1240     0.0000     0.0000 </r>
       <r>    -6.1126     0.0000     0.0000 </r>
       <r>    -6.1013     0.0000     0.0000 </r>
       <r>    -6.0899     0.0000     0.0000 </r>
       <r>    -6.0785     0.0000     0.0000 </r>
       <r>    -6.0672     0.0000     0.0000 </r>
       <r>    -6.0558     0.0000     0.0000 </r>
       <r>    -6.0445     0.0000     0.0000 </r>
       <r>    -6.0331     0.0000     0.0000 </r>
       <r>    -6.0217     0.0000     0.0000 </r>
       <r>    -6.0104     0.0000     0.0000 </r>
       <r>    -5.9990     0.0000     0.0000 </r>
       <r>    -5.9877     0.0000     0.0000 </r>
       <r>    -5.9763     0.0000     0.0000 </r>
       <r>    -5.9649     0.0000     0.0000 </r>
       <r>    -5.9536     0.0000     0.0000 </r>
       <r>    -5.9422     0.0000     0.0000 </r>
       <r>    -5.9308     0.0000     0.0000 </r>
       <r>    -5.9195    -0.0000    -0.0000 </r>
       <r>    -5.9081    -0.0000    -0.0000 </r>
       <r>    -5.8968    -0.0000    -0.0000 </r>
       <r>    -5.8854    -0.0000    -0.0000 </r>
       <r>    -5.8740    -0.0000    -0.0000 </r>
       <r>    -5.8627    -0.0000    -0.0000 </r>
       <r>    -5.8513    -0.0000    -0.0000 </r>
       <r>    -5.8399    -0.0000    -0.0000 </r>
       <r>    -5.8286    -0.0000    -0.0000 </r>
       <r>    -5.8172    -0.0000    -0.0000 </r>
       <r>    -5.8059    -0.0000    -0.0000 </r>
       <r>    -5.7945    -0.0000    -0.0000 </r>
       <r>    -5.7831    -0.0000    -0.0000 </r>
       <r>    -5.7718    -0.0000    -0.0000 </r>
       <r>    -5.7604    -0.0000    -0.0000 </r>
       <r>    -5.7490    -0.0000    -0.0000 </r>
       <r>    -5.7377    -0.0000    -0.0000 </r>
       <r>    -5.7263    -0.0000    -0.0000 </r>
       <r>    -5.7150    -0.0000    -0.0000 </r>
       <r>    -5.7036    -0.0000    -0.0000 </r>
       <r>    -5.6922    -0.0000    -0.0000 </r>
       <r>    -5.6809    -0.0000    -0.0000 </r>
       <r>    -5.6695    -0.0000    -0.0000 </r>
       <r>    -5.6581    -0.0000    -0.0000 </r>
       <r>    -5.6468    -0.0000    -0.0000 </r>
       <r>    -5.6354    -0.0000    -0.0000 </r>
       <r>    -5.6241    -0.0000    -0.0000 </r>
       <r>    -5.6127    -0.0000    -0.0000 </r>
       <r>    -5.6013    -0.0000    -0.0000 </r>
       <r>    -5.5900    -0.0000    -0.0000 </r>
       <r>    -5.5786    -0.0000    -0.0000 </r>
       <r>    -5.5673    -0.0000    -0.0000 </r>
       <r>    -5.5559    -0.0000    -0.0000 </r>
       <r>    -5.5445    -0.0000    -0.0000 </r>
       <r>    -5.5332    -0.0000    -0.0000 </r>
       <r>    -5.5218    -0.0000    -0.0000 </r>
       <r>    -5.5104    -0.0000    -0.0000 </r>
       <r>    -5.4991    -0.0000    -0.0000 </r>
       <r>    -5.4877    -0.0000    -0.0000 </r>
       <r>    -5.4764    -0.0000    -0.0000 </r>
       <r>    -5.4650    -0.0000    -0.0000 </r>
       <r>    -5.4536    -0.0000    -0.0000 </r>
       <r>    -5.4423    -0.0000    -0.0000 </r>
       <r>    -5.4309    -0.0000    -0.0000 </r>
       <r>    -5.4195    -0.0000    -0.0000 </r>
       <r>    -5.4082    -0.0000    -0.0000 </r>
       <r>    -5.3968    -0.0000    -0.0000 </r>
       <r>    -5.3855    -0.0000    -0.0000 </r>
       <r>    -5.3741    -0.0000    -0.0000 </r>
       <r>    -5.3627    -0.0000    -0.0000 </r>
       <r>    -5.3514    -0.0000    -0.0000 </r>
       <r>    -5.3400    -0.0000    -0.0000 </r>
       <r>    -5.3286    -0.0000    -0.0000 </r>
       <r>    -5.3173    -0.0000    -0.0000 </r>
       <r>    -5.3059    -0.0000    -0.0000 </r>
       <r>    -5.2946    -0.0000    -0.0000 </r>
       <r>    -5.2832    -0.0000    -0.0000 </r>
       <r>    -5.2718    -0.0000    -0.0000 </r>
       <r>    -5.2605    -0.0000    -0.0000 </r>
       <r>    -5.2491    -0.0000    -0.0000 </r>
       <r>    -5.2378    -0.0000    -0.0000 </r>
       <r>    -5.2264    -0.0000    -0.0000 </r>
       <r>    -5.2150    -0.0000    -0.0000 </r>
       <r>    -5.2037    -0.0000    -0.0000 </r>
       <r>    -5.1923    -0.0000    -0.0000 </r>
       <r>    -5.1809    -0.0000    -0.0000 </r>
       <r>    -5.1696    -0.0000    -0.0000 </r>
       <r>    -5.1582    -0.0000    -0.0000 </r>
       <r>    -5.1469    -0.0000    -0.0000 </r>
       <r>    -5.1355    -0.0000    -0.0000 </r>
       <r>    -5.1241    -0.0000    -0.0000 </r>
       <r>    -5.1128    -0.0000    -0.0000 </r>
       <r>    -5.1014    -0.0000    -0.0000 </r>
       <r>    -5.0900    -0.0000    -0.0000 </r>
       <r>    -5.0787    -0.0000    -0.0000 </r>
       <r>    -5.0673    -0.0000    -0.0000 </r>
       <r>    -5.0560    -0.0000    -0.0000 </r>
       <r>    -5.0446    -0.0000    -0.0000 </r>
       <r>    -5.0332    -0.0000    -0.0000 </r>
       <r>    -5.0219    -0.0000    -0.0000 </r>
       <r>    -5.0105    -0.0000    -0.0000 </r>
       <r>    -4.9991    -0.0000    -0.0000 </r>
       <r>    -4.9878    -0.0000    -0.0000 </r>
       <r>    -4.9764    -0.0000    -0.0000 </r>
       <r>    -4.9651    -0.0000    -0.0000 </r>
       <r>    -4.9537    -0.0000    -0.0000 </r>
       <r>    -4.9423    -0.0000    -0.0000 </r>
       <r>    -4.9310    -0.0000    -0.0000 </r>
       <r>    -4.9196    -0.0000    -0.0000 </r>
       <r>    -4.9082    -0.0000    -0.0000 </r>
       <r>    -4.8969    -0.0000    -0.0000 </r>
       <r>    -4.8855    -0.0000    -0.0000 </r>
       <r>    -4.8742    -0.0000    -0.0000 </r>
       <r>    -4.8628    -0.0000    -0.0000 </r>
       <r>    -4.8514    -0.0001    -0.0000 </r>
       <r>    -4.8401    -0.0001    -0.0000 </r>
       <r>    -4.8287    -0.0001    -0.0000 </r>
       <r>    -4.8174    -0.0001    -0.0000 </r>
       <r>    -4.8060    -0.0001    -0.0000 </r>
       <r>    -4.7946    -0.0002    -0.0000 </r>
       <r>    -4.7833    -0.0002    -0.0000 </r>
       <r>    -4.7719    -0.0003    -0.0000 </r>
       <r>    -4.7605    -0.0003    -0.0000 </r>
       <r>    -4.7492    -0.0004    -0.0000 </r>
       <r>    -4.7378    -0.0005    -0.0000 </r>
       <r>    -4.7265    -0.0005    -0.0000 </r>
       <r>    -4.7151    -0.0006    -0.0000 </r>
       <r>    -4.7037    -0.0007    -0.0001 </r>
       <r>    -4.6924    -0.0008    -0.0001 </r>
       <r>    -4.6810    -0.0010    -0.0001 </r>
       <r>    -4.6696    -0.0011    -0.0001 </r>
       <r>    -4.6583    -0.0012    -0.0001 </r>
       <r>    -4.6469    -0.0013    -0.0001 </r>
       <r>    -4.6356    -0.0014    -0.0001 </r>
       <r>    -4.6242    -0.0015    -0.0001 </r>
       <r>    -4.6128    -0.0015    -0.0002 </r>
       <r>    -4.6015    -0.0016    -0.0002 </r>
       <r>    -4.5901    -0.0016    -0.0002 </r>
       <r>    -4.5787    -0.0015    -0.0002 </r>
       <r>    -4.5674    -0.0015    -0.0002 </r>
       <r>    -4.5560    -0.0013    -0.0002 </r>
       <r>    -4.5447    -0.0012    -0.0003 </r>
       <r>    -4.5333    -0.0009    -0.0003 </r>
       <r>    -4.5219    -0.0006    -0.0003 </r>
       <r>    -4.5106    -0.0003    -0.0003 </r>
       <r>    -4.4992     0.0001    -0.0003 </r>
       <r>    -4.4879     0.0005    -0.0003 </r>
       <r>    -4.4765     0.0010    -0.0003 </r>
       <r>    -4.4651     0.0016    -0.0002 </r>
       <r>    -4.4538     0.0021    -0.0002 </r>
       <r>    -4.4424     0.0028    -0.0002 </r>
       <r>    -4.4310     0.0035    -0.0001 </r>
       <r>    -4.4197     0.0042    -0.0001 </r>
       <r>    -4.4083     0.0050    -0.0000 </r>
       <r>    -4.3970     0.0059     0.0000 </r>
       <r>    -4.3856     0.0069     0.0001 </r>
       <r>    -4.3742     0.0081     0.0002 </r>
       <r>    -4.3629     0.0095     0.0003 </r>
       <r>    -4.3515     0.0111     0.0004 </r>
       <r>    -4.3401     0.0130     0.0006 </r>
       <r>    -4.3288     0.0153     0.0008 </r>
       <r>    -4.3174     0.0180     0.0010 </r>
       <r>    -4.3061     0.0212     0.0012 </r>
       <r>    -4.2947     0.0249     0.0015 </r>
       <r>    -4.2833     0.0292     0.0018 </r>
       <r>    -4.2720     0.0341     0.0022 </r>
       <r>    -4.2606     0.0396     0.0026 </r>
       <r>    -4.2492     0.0458     0.0032 </r>
       <r>    -4.2379     0.0526     0.0038 </r>
       <r>    -4.2265     0.0601     0.0044 </r>
       <r>    -4.2152     0.0680     0.0052 </r>
       <r>    -4.2038     0.0764     0.0061 </r>
       <r>    -4.1924     0.0851     0.0071 </r>
       <r>    -4.1811     0.0941     0.0081 </r>
       <r>    -4.1697     0.1033     0.0093 </r>
       <r>    -4.1583     0.1124     0.0106 </r>
       <r>    -4.1470     0.1214     0.0120 </r>
       <r>    -4.1356     0.1302     0.0134 </r>
       <r>    -4.1243     0.1386     0.0150 </r>
       <r>    -4.1129     0.1467     0.0167 </r>
       <r>    -4.1015     0.1543     0.0184 </r>
       <r>    -4.0902     0.1615     0.0203 </r>
       <r>    -4.0788     0.1681     0.0222 </r>
       <r>    -4.0675     0.1743     0.0242 </r>
       <r>    -4.0561     0.1801     0.0262 </r>
       <r>    -4.0447     0.1857     0.0283 </r>
       <r>    -4.0334     0.1909     0.0305 </r>
       <r>    -4.0220     0.1960     0.0327 </r>
       <r>    -4.0106     0.2011     0.0350 </r>
       <r>    -3.9993     0.2061     0.0373 </r>
       <r>    -3.9879     0.2113     0.0397 </r>
       <r>    -3.9766     0.2164     0.0422 </r>
       <r>    -3.9652     0.2216     0.0447 </r>
       <r>    -3.9538     0.2269     0.0473 </r>
       <r>    -3.9425     0.2320     0.0499 </r>
       <r>    -3.9311     0.2369     0.0526 </r>
       <r>    -3.9197     0.2415     0.0554 </r>
       <r>    -3.9084     0.2455     0.0582 </r>
       <r>    -3.8970     0.2489     0.0610 </r>
       <r>    -3.8857     0.2513     0.0638 </r>
       <r>    -3.8743     0.2526     0.0667 </r>
       <r>    -3.8629     0.2528     0.0696 </r>
       <r>    -3.8516     0.2516     0.0724 </r>
       <r>    -3.8402     0.2489     0.0753 </r>
       <r>    -3.8288     0.2449     0.0780 </r>
       <r>    -3.8175     0.2394     0.0808 </r>
       <r>    -3.8061     0.2325     0.0834 </r>
       <r>    -3.7948     0.2245     0.0860 </r>
       <r>    -3.7834     0.2154     0.0884 </r>
       <r>    -3.7720     0.2054     0.0907 </r>
       <r>    -3.7607     0.1949     0.0930 </r>
       <r>    -3.7493     0.1840     0.0950 </r>
       <r>    -3.7379     0.1730     0.0970 </r>
       <r>    -3.7266     0.1623     0.0989 </r>
       <r>    -3.7152     0.1521     0.1006 </r>
       <r>    -3.7039     0.1426     0.1022 </r>
       <r>    -3.6925     0.1340     0.1037 </r>
       <r>    -3.6811     0.1265     0.1052 </r>
       <r>    -3.6698     0.1203     0.1065 </r>
       <r>    -3.6584     0.1155     0.1078 </r>
       <r>    -3.6471     0.1122     0.1091 </r>
       <r>    -3.6357     0.1105     0.1104 </r>
       <r>    -3.6243     0.1103     0.1116 </r>
       <r>    -3.6130     0.1118     0.1129 </r>
       <r>    -3.6016     0.1149     0.1142 </r>
       <r>    -3.5902     0.1196     0.1156 </r>
       <r>    -3.5789     0.1259     0.1170 </r>
       <r>    -3.5675     0.1339     0.1185 </r>
       <r>    -3.5562     0.1434     0.1201 </r>
       <r>    -3.5448     0.1544     0.1219 </r>
       <r>    -3.5334     0.1669     0.1238 </r>
       <r>    -3.5221     0.1809     0.1258 </r>
       <r>    -3.5107     0.1961     0.1281 </r>
       <r>    -3.4993     0.2126     0.1305 </r>
       <r>    -3.4880     0.2302     0.1331 </r>
       <r>    -3.4766     0.2487     0.1359 </r>
       <r>    -3.4653     0.2680     0.1390 </r>
       <r>    -3.4539     0.2878     0.1422 </r>
       <r>    -3.4425     0.3080     0.1457 </r>
       <r>    -3.4312     0.3283     0.1495 </r>
       <r>    -3.4198     0.3484     0.1534 </r>
       <r>    -3.4084     0.3682     0.1576 </r>
       <r>    -3.3971     0.3875     0.1620 </r>
       <r>    -3.3857     0.4060     0.1666 </r>
       <r>    -3.3744     0.4236     0.1714 </r>
       <r>    -3.3630     0.4401     0.1764 </r>
       <r>    -3.3516     0.4556     0.1816 </r>
       <r>    -3.3403     0.4699     0.1870 </r>
       <r>    -3.3289     0.4831     0.1925 </r>
       <r>    -3.3176     0.4951     0.1981 </r>
       <r>    -3.3062     0.5060     0.2038 </r>
       <r>    -3.2948     0.5159     0.2097 </r>
       <r>    -3.2835     0.5247     0.2157 </r>
       <r>    -3.2721     0.5325     0.2217 </r>
       <r>    -3.2607     0.5393     0.2278 </r>
       <r>    -3.2494     0.5451     0.2340 </r>
       <r>    -3.2380     0.5497     0.2403 </r>
       <r>    -3.2267     0.5532     0.2466 </r>
       <r>    -3.2153     0.5553     0.2529 </r>
       <r>    -3.2039     0.5558     0.2592 </r>
       <r>    -3.1926     0.5546     0.2655 </r>
       <r>    -3.1812     0.5514     0.2717 </r>
       <r>    -3.1698     0.5460     0.2779 </r>
       <r>    -3.1585     0.5381     0.2841 </r>
       <r>    -3.1471     0.5277     0.2901 </r>
       <r>    -3.1358     0.5144     0.2959 </r>
       <r>    -3.1244     0.4984     0.3016 </r>
       <r>    -3.1130     0.4795     0.3070 </r>
       <r>    -3.1017     0.4578     0.3122 </r>
       <r>    -3.0903     0.4335     0.3171 </r>
       <r>    -3.0789     0.4068     0.3218 </r>
       <r>    -3.0676     0.3779     0.3261 </r>
       <r>    -3.0562     0.3473     0.3300 </r>
       <r>    -3.0449     0.3155     0.3336 </r>
       <r>    -3.0335     0.2827     0.3368 </r>
       <r>    -3.0221     0.2497     0.3396 </r>
       <r>    -3.0108     0.2169     0.3421 </r>
       <r>    -2.9994     0.1849     0.3442 </r>
       <r>    -2.9880     0.1542     0.3460 </r>
       <r>    -2.9767     0.1253     0.3474 </r>
       <r>    -2.9653     0.0987     0.3485 </r>
       <r>    -2.9540     0.0748     0.3494 </r>
       <r>    -2.9426     0.0539     0.3500 </r>
       <r>    -2.9312     0.0365     0.3504 </r>
       <r>    -2.9199     0.0227     0.3506 </r>
       <r>    -2.9085     0.0128     0.3508 </r>
       <r>    -2.8972     0.0068     0.3509 </r>
       <r>    -2.8858     0.0048     0.3509 </r>
       <r>    -2.8744     0.0069     0.3510 </r>
       <r>    -2.8631     0.0128     0.3511 </r>
       <r>    -2.8517     0.0226     0.3514 </r>
       <r>    -2.8403     0.0360     0.3518 </r>
       <r>    -2.8290     0.0528     0.3524 </r>
       <r>    -2.8176     0.0726     0.3532 </r>
       <r>    -2.8063     0.0951     0.3543 </r>
       <r>    -2.7949     0.1199     0.3557 </r>
       <r>    -2.7835     0.1466     0.3573 </r>
       <r>    -2.7722     0.1747     0.3593 </r>
       <r>    -2.7608     0.2037     0.3616 </r>
       <r>    -2.7494     0.2333     0.3643 </r>
       <r>    -2.7381     0.2628     0.3673 </r>
       <r>    -2.7267     0.2920     0.3706 </r>
       <r>    -2.7154     0.3204     0.3742 </r>
       <r>    -2.7040     0.3477     0.3782 </r>
       <r>    -2.6926     0.3736     0.3824 </r>
       <r>    -2.6813     0.3980     0.3869 </r>
       <r>    -2.6699     0.4207     0.3917 </r>
       <r>    -2.6585     0.4418     0.3967 </r>
       <r>    -2.6472     0.4613     0.4020 </r>
       <r>    -2.6358     0.4794     0.4074 </r>
       <r>    -2.6245     0.4964     0.4131 </r>
       <r>    -2.6131     0.5124     0.4189 </r>
       <r>    -2.6017     0.5278     0.4249 </r>
       <r>    -2.5904     0.5429     0.4311 </r>
       <r>    -2.5790     0.5581     0.4374 </r>
       <r>    -2.5677     0.5735     0.4439 </r>
       <r>    -2.5563     0.5894     0.4506 </r>
       <r>    -2.5449     0.6059     0.4575 </r>
       <r>    -2.5336     0.6230     0.4646 </r>
       <r>    -2.5222     0.6407     0.4719 </r>
       <r>    -2.5108     0.6587     0.4793 </r>
       <r>    -2.4995     0.6767     0.4870 </r>
       <r>    -2.4881     0.6943     0.4949 </r>
       <r>    -2.4768     0.7110     0.5030 </r>
       <r>    -2.4654     0.7262     0.5113 </r>
       <r>    -2.4540     0.7393     0.5197 </r>
       <r>    -2.4427     0.7498     0.5282 </r>
       <r>    -2.4313     0.7569     0.5368 </r>
       <r>    -2.4199     0.7602     0.5454 </r>
       <r>    -2.4086     0.7593     0.5540 </r>
       <r>    -2.3972     0.7538     0.5626 </r>
       <r>    -2.3859     0.7436     0.5710 </r>
       <r>    -2.3745     0.7287     0.5793 </r>
       <r>    -2.3631     0.7091     0.5874 </r>
       <r>    -2.3518     0.6853     0.5952 </r>
       <r>    -2.3404     0.6577     0.6026 </r>
       <r>    -2.3290     0.6269     0.6098 </r>
       <r>    -2.3177     0.5937     0.6165 </r>
       <r>    -2.3063     0.5589     0.6229 </r>
       <r>    -2.2950     0.5233     0.6288 </r>
       <r>    -2.2836     0.4878     0.6344 </r>
       <r>    -2.2722     0.4533     0.6395 </r>
       <r>    -2.2609     0.4207     0.6443 </r>
       <r>    -2.2495     0.3906     0.6487 </r>
       <r>    -2.2381     0.3638     0.6529 </r>
       <r>    -2.2268     0.3406     0.6567 </r>
       <r>    -2.2154     0.3214     0.6604 </r>
       <r>    -2.2041     0.3064     0.6639 </r>
       <r>    -2.1927     0.2957     0.6672 </r>
       <r>    -2.1813     0.2891     0.6705 </r>
       <r>    -2.1700     0.2864     0.6738 </r>
       <r>    -2.1586     0.2871     0.6770 </r>
       <r>    -2.1473     0.2910     0.6803 </r>
       <r>    -2.1359     0.2973     0.6837 </r>
       <r>    -2.1245     0.3056     0.6872 </r>
       <r>    -2.1132     0.3152     0.6908 </r>
       <r>    -2.1018     0.3257     0.6945 </r>
       <r>    -2.0904     0.3363     0.6983 </r>
       <r>    -2.0791     0.3468     0.7022 </r>
       <r>    -2.0677     0.3567     0.7063 </r>
       <r>    -2.0564     0.3656     0.7104 </r>
       <r>    -2.0450     0.3733     0.7147 </r>
       <r>    -2.0336     0.3798     0.7190 </r>
       <r>    -2.0223     0.3849     0.7234 </r>
       <r>    -2.0109     0.3887     0.7278 </r>
       <r>    -1.9995     0.3915     0.7322 </r>
       <r>    -1.9882     0.3933     0.7367 </r>
       <r>    -1.9768     0.3945     0.7412 </r>
       <r>    -1.9655     0.3953     0.7457 </r>
       <r>    -1.9541     0.3962     0.7502 </r>
       <r>    -1.9427     0.3973     0.7547 </r>
       <r>    -1.9314     0.3991     0.7592 </r>
       <r>    -1.9200     0.4019     0.7638 </r>
       <r>    -1.9086     0.4059     0.7684 </r>
       <r>    -1.8973     0.4114     0.7731 </r>
       <r>    -1.8859     0.4185     0.7778 </r>
       <r>    -1.8746     0.4273     0.7827 </r>
       <r>    -1.8632     0.4379     0.7877 </r>
       <r>    -1.8518     0.4500     0.7928 </r>
       <r>    -1.8405     0.4637     0.7980 </r>
       <r>    -1.8291     0.4787     0.8035 </r>
       <r>    -1.8177     0.4947     0.8091 </r>
       <r>    -1.8064     0.5113     0.8149 </r>
       <r>    -1.7950     0.5281     0.8209 </r>
       <r>    -1.7837     0.5448     0.8271 </r>
       <r>    -1.7723     0.5607     0.8335 </r>
       <r>    -1.7609     0.5755     0.8400 </r>
       <r>    -1.7496     0.5886     0.8467 </r>
       <r>    -1.7382     0.5996     0.8535 </r>
       <r>    -1.7269     0.6082     0.8604 </r>
       <r>    -1.7155     0.6140     0.8674 </r>
       <r>    -1.7041     0.6168     0.8744 </r>
       <r>    -1.6928     0.6162     0.8814 </r>
       <r>    -1.6814     0.6124     0.8884 </r>
       <r>    -1.6700     0.6052     0.8952 </r>
       <r>    -1.6587     0.5948     0.9020 </r>
       <r>    -1.6473     0.5815     0.9086 </r>
       <r>    -1.6360     0.5654     0.9150 </r>
       <r>    -1.6246     0.5469     0.9212 </r>
       <r>    -1.6132     0.5267     0.9272 </r>
       <r>    -1.6019     0.5050     0.9330 </r>
       <r>    -1.5905     0.4825     0.9384 </r>
       <r>    -1.5791     0.4598     0.9437 </r>
       <r>    -1.5678     0.4375     0.9486 </r>
       <r>    -1.5564     0.4161     0.9534 </r>
       <r>    -1.5451     0.3962     0.9579 </r>
       <r>    -1.5337     0.3785     0.9622 </r>
       <r>    -1.5223     0.3633     0.9663 </r>
       <r>    -1.5110     0.3511     0.9703 </r>
       <r>    -1.4996     0.3423     0.9742 </r>
       <r>    -1.4882     0.3371     0.9780 </r>
       <r>    -1.4769     0.3359     0.9818 </r>
       <r>    -1.4655     0.3388     0.9857 </r>
       <r>    -1.4542     0.3457     0.9896 </r>
       <r>    -1.4428     0.3567     0.9936 </r>
       <r>    -1.4314     0.3716     0.9979 </r>
       <r>    -1.4201     0.3902     1.0023 </r>
       <r>    -1.4087     0.4123     1.0070 </r>
       <r>    -1.3974     0.4375     1.0120 </r>
       <r>    -1.3860     0.4654     1.0172 </r>
       <r>    -1.3746     0.4954     1.0229 </r>
       <r>    -1.3633     0.5271     1.0289 </r>
       <r>    -1.3519     0.5599     1.0352 </r>
       <r>    -1.3405     0.5932     1.0420 </r>
       <r>    -1.3292     0.6263     1.0491 </r>
       <r>    -1.3178     0.6586     1.0566 </r>
       <r>    -1.3065     0.6896     1.0644 </r>
       <r>    -1.2951     0.7185     1.0726 </r>
       <r>    -1.2837     0.7448     1.0810 </r>
       <r>    -1.2724     0.7680     1.0898 </r>
       <r>    -1.2610     0.7877     1.0987 </r>
       <r>    -1.2496     0.8033     1.1078 </r>
       <r>    -1.2383     0.8148     1.1171 </r>
       <r>    -1.2269     0.8219     1.1264 </r>
       <r>    -1.2156     0.8246     1.1358 </r>
       <r>    -1.2042     0.8228     1.1451 </r>
       <r>    -1.1928     0.8169     1.1544 </r>
       <r>    -1.1815     0.8071     1.1636 </r>
       <r>    -1.1701     0.7938     1.1726 </r>
       <r>    -1.1587     0.7776     1.1815 </r>
       <r>    -1.1474     0.7589     1.1901 </r>
       <r>    -1.1360     0.7384     1.1985 </r>
       <r>    -1.1247     0.7167     1.2066 </r>
       <r>    -1.1133     0.6946     1.2145 </r>
       <r>    -1.1019     0.6725     1.2221 </r>
       <r>    -1.0906     0.6509     1.2295 </r>
       <r>    -1.0792     0.6304     1.2367 </r>
       <r>    -1.0678     0.6113     1.2436 </r>
       <r>    -1.0565     0.5938     1.2504 </r>
       <r>    -1.0451     0.5780     1.2570 </r>
       <r>    -1.0338     0.5638     1.2634 </r>
       <r>    -1.0224     0.5511     1.2696 </r>
       <r>    -1.0110     0.5396     1.2758 </r>
       <r>    -0.9997     0.5290     1.2818 </r>
       <r>    -0.9883     0.5188     1.2877 </r>
       <r>    -0.9770     0.5087     1.2934 </r>
       <r>    -0.9656     0.4982     1.2991 </r>
       <r>    -0.9542     0.4870     1.3046 </r>
       <r>    -0.9429     0.4747     1.3100 </r>
       <r>    -0.9315     0.4611     1.3153 </r>
       <r>    -0.9201     0.4462     1.3203 </r>
       <r>    -0.9088     0.4300     1.3252 </r>
       <r>    -0.8974     0.4126     1.3299 </r>
       <r>    -0.8861     0.3945     1.3344 </r>
       <r>    -0.8747     0.3761     1.3387 </r>
       <r>    -0.8633     0.3579     1.3427 </r>
       <r>    -0.8520     0.3406     1.3466 </r>
       <r>    -0.8406     0.3250     1.3503 </r>
       <r>    -0.8292     0.3117     1.3538 </r>
       <r>    -0.8179     0.3017     1.3573 </r>
       <r>    -0.8065     0.2955     1.3606 </r>
       <r>    -0.7952     0.2938     1.3640 </r>
       <r>    -0.7838     0.2971     1.3673 </r>
       <r>    -0.7724     0.3058     1.3708 </r>
       <r>    -0.7611     0.3201     1.3744 </r>
       <r>    -0.7497     0.3401     1.3783 </r>
       <r>    -0.7383     0.3657     1.3825 </r>
       <r>    -0.7270     0.3964     1.3870 </r>
       <r>    -0.7156     0.4318     1.3919 </r>
       <r>    -0.7043     0.4712     1.3972 </r>
       <r>    -0.6929     0.5138     1.4031 </r>
       <r>    -0.6815     0.5586     1.4094 </r>
       <r>    -0.6702     0.6047     1.4163 </r>
       <r>    -0.6588     0.6510     1.4237 </r>
       <r>    -0.6475     0.6963     1.4316 </r>
       <r>    -0.6361     0.7396     1.4400 </r>
       <r>    -0.6247     0.7799     1.4489 </r>
       <r>    -0.6134     0.8162     1.4581 </r>
       <r>    -0.6020     0.8479     1.4678 </r>
       <r>    -0.5906     0.8742     1.4777 </r>
       <r>    -0.5793     0.8948     1.4879 </r>
       <r>    -0.5679     0.9093     1.4982 </r>
       <r>    -0.5566     0.9178     1.5086 </r>
       <r>    -0.5452     0.9204     1.5191 </r>
       <r>    -0.5338     0.9174     1.5295 </r>
       <r>    -0.5225     0.9095     1.5398 </r>
       <r>    -0.5111     0.8972     1.5500 </r>
       <r>    -0.4997     0.8816     1.5601 </r>
       <r>    -0.4884     0.8634     1.5699 </r>
       <r>    -0.4770     0.8437     1.5794 </r>
       <r>    -0.4657     0.8234     1.5888 </r>
       <r>    -0.4543     0.8037     1.5979 </r>
       <r>    -0.4429     0.7853     1.6069 </r>
       <r>    -0.4316     0.7692     1.6156 </r>
       <r>    -0.4202     0.7559     1.6242 </r>
       <r>    -0.4088     0.7462     1.6327 </r>
       <r>    -0.3975     0.7403     1.6411 </r>
       <r>    -0.3861     0.7383     1.6495 </r>
       <r>    -0.3748     0.7404     1.6579 </r>
       <r>    -0.3634     0.7462     1.6664 </r>
       <r>    -0.3520     0.7554     1.6749 </r>
       <r>    -0.3407     0.7675     1.6837 </r>
       <r>    -0.3293     0.7817     1.6925 </r>
       <r>    -0.3179     0.7975     1.7016 </r>
       <r>    -0.3066     0.8139     1.7109 </r>
       <r>    -0.2952     0.8302     1.7203 </r>
       <r>    -0.2839     0.8455     1.7299 </r>
       <r>    -0.2725     0.8590     1.7397 </r>
       <r>    -0.2611     0.8700     1.7495 </r>
       <r>    -0.2498     0.8780     1.7595 </r>
       <r>    -0.2384     0.8823     1.7695 </r>
       <r>    -0.2271     0.8827     1.7796 </r>
       <r>    -0.2157     0.8788     1.7896 </r>
       <r>    -0.2043     0.8705     1.7994 </r>
       <r>    -0.1930     0.8579     1.8092 </r>
       <r>    -0.1816     0.8410     1.8187 </r>
       <r>    -0.1702     0.8201     1.8281 </r>
       <r>    -0.1589     0.7954     1.8371 </r>
       <r>    -0.1475     0.7675     1.8458 </r>
       <r>    -0.1362     0.7366     1.8542 </r>
       <r>    -0.1248     0.7034     1.8622 </r>
       <r>    -0.1134     0.6683     1.8698 </r>
       <r>    -0.1021     0.6319     1.8770 </r>
       <r>    -0.0907     0.5948     1.8837 </r>
       <r>    -0.0793     0.5574     1.8900 </r>
       <r>    -0.0680     0.5204     1.8960 </r>
       <r>    -0.0566     0.4843     1.9015 </r>
       <r>    -0.0453     0.4496     1.9066 </r>
       <r>    -0.0339     0.4167     1.9113 </r>
       <r>    -0.0225     0.3862     1.9157 </r>
       <r>    -0.0112     0.3583     1.9198 </r>
       <r>     0.0002     0.3336     1.9236 </r>
       <r>     0.0116     0.3122     1.9271 </r>
       <r>     0.0229     0.2945     1.9304 </r>
       <r>     0.0343     0.2805     1.9336 </r>
       <r>     0.0456     0.2704     1.9367 </r>
       <r>     0.0570     0.2642     1.9397 </r>
       <r>     0.0684     0.2618     1.9427 </r>
       <r>     0.0797     0.2631     1.9457 </r>
       <r>     0.0911     0.2678     1.9487 </r>
       <r>     0.1025     0.2758     1.9518 </r>
       <r>     0.1138     0.2865     1.9551 </r>
       <r>     0.1252     0.2998     1.9585 </r>
       <r>     0.1365     0.3151     1.9621 </r>
       <r>     0.1479     0.3320     1.9659 </r>
       <r>     0.1593     0.3502     1.9698 </r>
       <r>     0.1706     0.3693     1.9740 </r>
       <r>     0.1820     0.3889     1.9785 </r>
       <r>     0.1933     0.4089     1.9831 </r>
       <r>     0.2047     0.4290     1.9880 </r>
       <r>     0.2161     0.4490     1.9931 </r>
       <r>     0.2274     0.4690     1.9984 </r>
       <r>     0.2388     0.4890     2.0040 </r>
       <r>     0.2502     0.5090     2.0097 </r>
       <r>     0.2615     0.5292     2.0158 </r>
       <r>     0.2729     0.5496     2.0220 </r>
       <r>     0.2842     0.5706     2.0285 </r>
       <r>     0.2956     0.5922     2.0352 </r>
       <r>     0.3070     0.6144     2.0422 </r>
       <r>     0.3183     0.6374     2.0494 </r>
       <r>     0.3297     0.6610     2.0570 </r>
       <r>     0.3411     0.6852     2.0647 </r>
       <r>     0.3524     0.7097     2.0728 </r>
       <r>     0.3638     0.7341     2.0811 </r>
       <r>     0.3751     0.7580     2.0898 </r>
       <r>     0.3865     0.7809     2.0986 </r>
       <r>     0.3979     0.8024     2.1077 </r>
       <r>     0.4092     0.8217     2.1171 </r>
       <r>     0.4206     0.8383     2.1266 </r>
       <r>     0.4320     0.8517     2.1363 </r>
       <r>     0.4433     0.8614     2.1461 </r>
       <r>     0.4547     0.8671     2.1559 </r>
       <r>     0.4660     0.8684     2.1658 </r>
       <r>     0.4774     0.8653     2.1756 </r>
       <r>     0.4888     0.8579     2.1854 </r>
       <r>     0.5001     0.8464     2.1950 </r>
       <r>     0.5115     0.8313     2.2044 </r>
       <r>     0.5228     0.8131     2.2137 </r>
       <r>     0.5342     0.7926     2.2227 </r>
       <r>     0.5456     0.7708     2.2314 </r>
       <r>     0.5569     0.7485     2.2399 </r>
       <r>     0.5683     0.7268     2.2482 </r>
       <r>     0.5797     0.7068     2.2562 </r>
       <r>     0.5910     0.6895     2.2641 </r>
       <r>     0.6024     0.6758     2.2717 </r>
       <r>     0.6137     0.6667     2.2793 </r>
       <r>     0.6251     0.6630     2.2868 </r>
       <r>     0.6365     0.6650     2.2944 </r>
       <r>     0.6478     0.6734     2.3021 </r>
       <r>     0.6592     0.6882     2.3099 </r>
       <r>     0.6706     0.7094     2.3179 </r>
       <r>     0.6819     0.7368     2.3263 </r>
       <r>     0.6933     0.7700     2.3351 </r>
       <r>     0.7046     0.8083     2.3442 </r>
       <r>     0.7160     0.8510     2.3539 </r>
       <r>     0.7274     0.8971     2.3641 </r>
       <r>     0.7387     0.9456     2.3748 </r>
       <r>     0.7501     0.9955     2.3862 </r>
       <r>     0.7615     1.0456     2.3980 </r>
       <r>     0.7728     1.0947     2.4105 </r>
       <r>     0.7842     1.1417     2.4234 </r>
       <r>     0.7955     1.1857     2.4369 </r>
       <r>     0.8069     1.2256     2.4508 </r>
       <r>     0.8183     1.2606     2.4652 </r>
       <r>     0.8296     1.2901     2.4798 </r>
       <r>     0.8410     1.3133     2.4947 </r>
       <r>     0.8524     1.3301     2.5099 </r>
       <r>     0.8637     1.3402     2.5251 </r>
       <r>     0.8751     1.3434     2.5403 </r>
       <r>     0.8864     1.3400     2.5556 </r>
       <r>     0.8978     1.3302     2.5707 </r>
       <r>     0.9092     1.3144     2.5856 </r>
       <r>     0.9205     1.2932     2.6003 </r>
       <r>     0.9319     1.2671     2.6147 </r>
       <r>     0.9432     1.2368     2.6288 </r>
       <r>     0.9546     1.2030     2.6424 </r>
       <r>     0.9660     1.1665     2.6557 </r>
       <r>     0.9773     1.1280     2.6685 </r>
       <r>     0.9887     1.0882     2.6809 </r>
       <r>     1.0001     1.0476     2.6928 </r>
       <r>     1.0114     1.0068     2.7042 </r>
       <r>     1.0228     0.9663     2.7152 </r>
       <r>     1.0341     0.9265     2.7257 </r>
       <r>     1.0455     0.8876     2.7358 </r>
       <r>     1.0569     0.8500     2.7455 </r>
       <r>     1.0682     0.8136     2.7547 </r>
       <r>     1.0796     0.7787     2.7636 </r>
       <r>     1.0910     0.7451     2.7720 </r>
       <r>     1.1023     0.7131     2.7801 </r>
       <r>     1.1137     0.6825     2.7879 </r>
       <r>     1.1250     0.6534     2.7953 </r>
       <r>     1.1364     0.6259     2.8024 </r>
       <r>     1.1478     0.6000     2.8092 </r>
       <r>     1.1591     0.5759     2.8158 </r>
       <r>     1.1705     0.5537     2.8221 </r>
       <r>     1.1819     0.5336     2.8281 </r>
       <r>     1.1932     0.5159     2.8340 </r>
       <r>     1.2046     0.5008     2.8397 </r>
       <r>     1.2159     0.4885     2.8452 </r>
       <r>     1.2273     0.4794     2.8507 </r>
       <r>     1.2387     0.4737     2.8561 </r>
       <r>     1.2500     0.4714     2.8614 </r>
       <r>     1.2614     0.4728     2.8668 </r>
       <r>     1.2727     0.4778     2.8722 </r>
       <r>     1.2841     0.4865     2.8777 </r>
       <r>     1.2955     0.4987     2.8834 </r>
       <r>     1.3068     0.5142     2.8893 </r>
       <r>     1.3182     0.5327     2.8953 </r>
       <r>     1.3296     0.5537     2.9016 </r>
       <r>     1.3409     0.5770     2.9082 </r>
       <r>     1.3523     0.6019     2.9150 </r>
       <r>     1.3636     0.6279     2.9221 </r>
       <r>     1.3750     0.6545     2.9296 </r>
       <r>     1.3864     0.6810     2.9373 </r>
       <r>     1.3977     0.7069     2.9453 </r>
       <r>     1.4091     0.7317     2.9536 </r>
       <r>     1.4205     0.7549     2.9622 </r>
       <r>     1.4318     0.7759     2.9710 </r>
       <r>     1.4432     0.7944     2.9801 </r>
       <r>     1.4545     0.8102     2.9893 </r>
       <r>     1.4659     0.8229     2.9986 </r>
       <r>     1.4773     0.8325     3.0081 </r>
       <r>     1.4886     0.8387     3.0176 </r>
       <r>     1.5000     0.8417     3.0272 </r>
       <r>     1.5114     0.8415     3.0367 </r>
       <r>     1.5227     0.8382     3.0463 </r>
       <r>     1.5341     0.8320     3.0557 </r>
       <r>     1.5454     0.8231     3.0651 </r>
       <r>     1.5568     0.8117     3.0743 </r>
       <r>     1.5682     0.7983     3.0834 </r>
       <r>     1.5795     0.7830     3.0923 </r>
       <r>     1.5909     0.7661     3.1010 </r>
       <r>     1.6023     0.7481     3.1095 </r>
       <r>     1.6136     0.7290     3.1177 </r>
       <r>     1.6250     0.7093     3.1258 </r>
       <r>     1.6363     0.6892     3.1336 </r>
       <r>     1.6477     0.6688     3.1412 </r>
       <r>     1.6591     0.6483     3.1486 </r>
       <r>     1.6704     0.6280     3.1557 </r>
       <r>     1.6818     0.6079     3.1626 </r>
       <r>     1.6931     0.5881     3.1693 </r>
       <r>     1.7045     0.5688     3.1758 </r>
       <r>     1.7159     0.5500     3.1820 </r>
       <r>     1.7272     0.5319     3.1881 </r>
       <r>     1.7386     0.5144     3.1939 </r>
       <r>     1.7500     0.4977     3.1996 </r>
       <r>     1.7613     0.4819     3.2050 </r>
       <r>     1.7727     0.4672     3.2104 </r>
       <r>     1.7840     0.4537     3.2155 </r>
       <r>     1.7954     0.4417     3.2205 </r>
       <r>     1.8068     0.4315     3.2254 </r>
       <r>     1.8181     0.4233     3.2302 </r>
       <r>     1.8295     0.4176     3.2350 </r>
       <r>     1.8409     0.4145     3.2397 </r>
       <r>     1.8522     0.4147     3.2444 </r>
       <r>     1.8636     0.4183     3.2492 </r>
       <r>     1.8749     0.4259     3.2540 </r>
       <r>     1.8863     0.4378     3.2590 </r>
       <r>     1.8977     0.4541     3.2641 </r>
       <r>     1.9090     0.4753     3.2695 </r>
       <r>     1.9204     0.5013     3.2752 </r>
       <r>     1.9318     0.5322     3.2813 </r>
       <r>     1.9431     0.5679     3.2877 </r>
       <r>     1.9545     0.6082     3.2946 </r>
       <r>     1.9658     0.6528     3.3021 </r>
       <r>     1.9772     0.7011     3.3100 </r>
       <r>     1.9886     0.7526     3.3186 </r>
       <r>     1.9999     0.8065     3.3277 </r>
       <r>     2.0113     0.8620     3.3375 </r>
       <r>     2.0227     0.9183     3.3480 </r>
       <r>     2.0340     0.9743     3.3590 </r>
       <r>     2.0454     1.0292     3.3707 </r>
       <r>     2.0567     1.0819     3.3830 </r>
       <r>     2.0681     1.1315     3.3959 </r>
       <r>     2.0795     1.1773     3.4093 </r>
       <r>     2.0908     1.2184     3.4231 </r>
       <r>     2.1022     1.2541     3.4374 </r>
       <r>     2.1135     1.2841     3.4519 </r>
       <r>     2.1249     1.3078     3.4668 </r>
       <r>     2.1363     1.3252     3.4819 </r>
       <r>     2.1476     1.3360     3.4970 </r>
       <r>     2.1590     1.3406     3.5123 </r>
       <r>     2.1704     1.3390     3.5275 </r>
       <r>     2.1817     1.3318     3.5426 </r>
       <r>     2.1931     1.3193     3.5576 </r>
       <r>     2.2044     1.3023     3.5724 </r>
       <r>     2.2158     1.2813     3.5870 </r>
       <r>     2.2272     1.2572     3.6012 </r>
       <r>     2.2385     1.2307     3.6152 </r>
       <r>     2.2499     1.2026     3.6289 </r>
       <r>     2.2613     1.1736     3.6422 </r>
       <r>     2.2726     1.1444     3.6552 </r>
       <r>     2.2840     1.1156     3.6679 </r>
       <r>     2.2953     1.0879     3.6803 </r>
       <r>     2.3067     1.0617     3.6923 </r>
       <r>     2.3181     1.0374     3.7041 </r>
       <r>     2.3294     1.0152     3.7157 </r>
       <r>     2.3408     0.9954     3.7270 </r>
       <r>     2.3522     0.9779     3.7381 </r>
       <r>     2.3635     0.9627     3.7490 </r>
       <r>     2.3749     0.9497     3.7598 </r>
       <r>     2.3862     0.9388     3.7705 </r>
       <r>     2.3976     0.9295     3.7810 </r>
       <r>     2.4090     0.9216     3.7915 </r>
       <r>     2.4203     0.9147     3.8019 </r>
       <r>     2.4317     0.9084     3.8122 </r>
       <r>     2.4430     0.9024     3.8225 </r>
       <r>     2.4544     0.8964     3.8327 </r>
       <r>     2.4658     0.8900     3.8428 </r>
       <r>     2.4771     0.8830     3.8528 </r>
       <r>     2.4885     0.8753     3.8627 </r>
       <r>     2.4999     0.8668     3.8726 </r>
       <r>     2.5112     0.8575     3.8823 </r>
       <r>     2.5226     0.8474     3.8920 </r>
       <r>     2.5339     0.8368     3.9015 </r>
       <r>     2.5453     0.8260     3.9109 </r>
       <r>     2.5567     0.8151     3.9201 </r>
       <r>     2.5680     0.8046     3.9293 </r>
       <r>     2.5794     0.7949     3.9383 </r>
       <r>     2.5908     0.7863     3.9472 </r>
       <r>     2.6021     0.7791     3.9561 </r>
       <r>     2.6135     0.7738     3.9649 </r>
       <r>     2.6248     0.7705     3.9736 </r>
       <r>     2.6362     0.7694     3.9824 </r>
       <r>     2.6476     0.7708     3.9911 </r>
       <r>     2.6589     0.7744     3.9999 </r>
       <r>     2.6703     0.7804     4.0088 </r>
       <r>     2.6817     0.7885     4.0177 </r>
       <r>     2.6930     0.7984     4.0268 </r>
       <r>     2.7044     0.8099     4.0360 </r>
       <r>     2.7157     0.8224     4.0454 </r>
       <r>     2.7271     0.8357     4.0549 </r>
       <r>     2.7385     0.8492     4.0645 </r>
       <r>     2.7498     0.8624     4.0743 </r>
       <r>     2.7612     0.8750     4.0843 </r>
       <r>     2.7726     0.8866     4.0943 </r>
       <r>     2.7839     0.8967     4.1045 </r>
       <r>     2.7953     0.9051     4.1148 </r>
       <r>     2.8066     0.9115     4.1252 </r>
       <r>     2.8180     0.9159     4.1356 </r>
       <r>     2.8294     0.9182     4.1460 </r>
       <r>     2.8407     0.9183     4.1564 </r>
       <r>     2.8521     0.9163     4.1668 </r>
       <r>     2.8634     0.9122     4.1772 </r>
       <r>     2.8748     0.9063     4.1875 </r>
       <r>     2.8862     0.8987     4.1977 </r>
       <r>     2.8975     0.8895     4.2078 </r>
       <r>     2.9089     0.8788     4.2178 </r>
       <r>     2.9203     0.8669     4.2277 </r>
       <r>     2.9316     0.8537     4.2374 </r>
       <r>     2.9430     0.8395     4.2469 </r>
       <r>     2.9543     0.8242     4.2563 </r>
       <r>     2.9657     0.8080     4.2654 </r>
       <r>     2.9771     0.7908     4.2744 </r>
       <r>     2.9884     0.7727     4.2832 </r>
       <r>     2.9998     0.7537     4.2918 </r>
       <r>     3.0112     0.7340     4.3001 </r>
       <r>     3.0225     0.7137     4.3082 </r>
       <r>     3.0339     0.6929     4.3161 </r>
       <r>     3.0452     0.6720     4.3237 </r>
       <r>     3.0566     0.6513     4.3311 </r>
       <r>     3.0680     0.6311     4.3383 </r>
       <r>     3.0793     0.6120     4.3452 </r>
       <r>     3.0907     0.5944     4.3520 </r>
       <r>     3.1021     0.5791     4.3586 </r>
       <r>     3.1134     0.5666     4.3650 </r>
       <r>     3.1248     0.5575     4.3714 </r>
       <r>     3.1361     0.5524     4.3776 </r>
       <r>     3.1475     0.5518     4.3839 </r>
       <r>     3.1589     0.5560     4.3902 </r>
       <r>     3.1702     0.5654     4.3966 </r>
       <r>     3.1816     0.5801     4.4032 </r>
       <r>     3.1929     0.6000     4.4100 </r>
       <r>     3.2043     0.6248     4.4171 </r>
       <r>     3.2157     0.6540     4.4246 </r>
       <r>     3.2270     0.6871     4.4324 </r>
       <r>     3.2384     0.7230     4.4406 </r>
       <r>     3.2498     0.7609     4.4492 </r>
       <r>     3.2611     0.7995     4.4583 </r>
       <r>     3.2725     0.8376     4.4678 </r>
       <r>     3.2838     0.8739     4.4778 </r>
       <r>     3.2952     0.9071     4.4881 </r>
       <r>     3.3066     0.9361     4.4987 </r>
       <r>     3.3179     0.9598     4.5096 </r>
       <r>     3.3293     0.9773     4.5207 </r>
       <r>     3.3407     0.9878     4.5320 </r>
       <r>     3.3520     0.9909     4.5432 </r>
       <r>     3.3634     0.9865     4.5544 </r>
       <r>     3.3747     0.9748     4.5655 </r>
       <r>     3.3861     0.9561     4.5764 </r>
       <r>     3.3975     0.9312     4.5869 </r>
       <r>     3.4088     0.9010     4.5972 </r>
       <r>     3.4202     0.8668     4.6070 </r>
       <r>     3.4316     0.8299     4.6165 </r>
       <r>     3.4429     0.7917     4.6254 </r>
       <r>     3.4543     0.7539     4.6340 </r>
       <r>     3.4656     0.7179     4.6422 </r>
       <r>     3.4770     0.6852     4.6500 </r>
       <r>     3.4884     0.6570     4.6574 </r>
       <r>     3.4997     0.6345     4.6646 </r>
       <r>     3.5111     0.6186     4.6717 </r>
       <r>     3.5225     0.6099     4.6786 </r>
       <r>     3.5338     0.6087     4.6855 </r>
       <r>     3.5452     0.6151     4.6925 </r>
       <r>     3.5565     0.6288     4.6996 </r>
       <r>     3.5679     0.6493     4.7070 </r>
       <r>     3.5793     0.6758     4.7147 </r>
       <r>     3.5906     0.7074     4.7227 </r>
       <r>     3.6020     0.7429     4.7312 </r>
       <r>     3.6133     0.7811     4.7401 </r>
       <r>     3.6247     0.8208     4.7494 </r>
       <r>     3.6361     0.8608     4.7592 </r>
       <r>     3.6474     0.8998     4.7694 </r>
       <r>     3.6588     0.9368     4.7800 </r>
       <r>     3.6702     0.9709     4.7911 </r>
       <r>     3.6815     1.0013     4.8024 </r>
       <r>     3.6929     1.0276     4.8141 </r>
       <r>     3.7042     1.0493     4.8260 </r>
       <r>     3.7156     1.0664     4.8381 </r>
       <r>     3.7270     1.0789     4.8504 </r>
       <r>     3.7383     1.0870     4.8628 </r>
       <r>     3.7497     1.0910     4.8752 </r>
       <r>     3.7611     1.0914     4.8876 </r>
       <r>     3.7724     1.0887     4.8999 </r>
       <r>     3.7838     1.0833     4.9122 </r>
       <r>     3.7951     1.0757     4.9245 </r>
       <r>     3.8065     1.0664     4.9366 </r>
       <r>     3.8179     1.0559     4.9486 </r>
       <r>     3.8292     1.0443     4.9604 </r>
       <r>     3.8406     1.0321     4.9722 </r>
       <r>     3.8520     1.0192     4.9837 </r>
       <r>     3.8633     1.0058     4.9952 </r>
       <r>     3.8747     0.9921     5.0064 </r>
       <r>     3.8860     0.9780     5.0176 </r>
       <r>     3.8974     0.9636     5.0285 </r>
       <r>     3.9088     0.9489     5.0393 </r>
       <r>     3.9201     0.9342     5.0499 </r>
       <r>     3.9315     0.9197     5.0603 </r>
       <r>     3.9429     0.9058     5.0706 </r>
       <r>     3.9542     0.8928     5.0808 </r>
       <r>     3.9656     0.8813     5.0908 </r>
       <r>     3.9769     0.8719     5.1007 </r>
       <r>     3.9883     0.8654     5.1105 </r>
       <r>     3.9997     0.8625     5.1203 </r>
       <r>     4.0110     0.8637     5.1302 </r>
       <r>     4.0224     0.8699     5.1400 </r>
       <r>     4.0337     0.8815     5.1501 </r>
       <r>     4.0451     0.8990     5.1603 </r>
       <r>     4.0565     0.9225     5.1707 </r>
       <r>     4.0678     0.9521     5.1816 </r>
       <r>     4.0792     0.9874     5.1928 </r>
       <r>     4.0906     1.0280     5.2045 </r>
       <r>     4.1019     1.0731     5.2167 </r>
       <r>     4.1133     1.1217     5.2294 </r>
       <r>     4.1246     1.1725     5.2427 </r>
       <r>     4.1360     1.2242     5.2566 </r>
       <r>     4.1474     1.2753     5.2711 </r>
       <r>     4.1587     1.3241     5.2862 </r>
       <r>     4.1701     1.3692     5.3017 </r>
       <r>     4.1815     1.4089     5.3177 </r>
       <r>     4.1928     1.4421     5.3341 </r>
       <r>     4.2042     1.4674     5.3508 </r>
[...]
        <r>  0.0494  0.0005  0.0018  0.0333  0.0001  0.0000  0.0007  0.0004  0.0022 </r>
       </set>
       <set comment="band 2">
        <r>  0.0215  0.0236  0.0044  0.0265  0.0042  0.0002  0.0017  0.0001  0.0005 </r>
        <r>  0.0215  0.0236  0.0044  0.0265  0.0042  0.0002  0.0017  0.0001  0.0005 </r>
       </set>
       <set comment="band 3">
        <r>  0.0291  0.0072  0.0190  0.0200  0.0031  0.0004  0.0005  0.0057  0.0022 </r>
        <r>  0.0291  0.0072  0.0190  0.0200  0.0031  0.0004  0.0005  0.0057  0.0022 </r>
       </set>
       <set comment="band 4">
        <r>  0.0328  0.0389  0.0026  0.0016  0.0080  0.0000  0.0024  0.0049  0.0002 </r>
        <r>  0.0328  0.0389  0.0026  0.0016  0.0080  0.0000  0.0024  0.0049  0.0002 </r>
       </set>
       <set comment="band 5">
        <r>  0.0406  0.0070  0.0236  0.0186  0.0019  0.0076  0.0010  0.0037  0.0003 </r>
        <r>  0.0406  0.0070  0.0236  0.0186  0.0019  0.0076  0.0010  0.0037  0.0003 </r>
       </set>
       <set comment="band 6">
        <r>  0.0187  0.0151  0.0309  0.0178  0.0042  0.0065  0.0017  0.0073  0.0015 </r>
        <r>  0.0187  0.0151  0.0309  0.0178  0.0042  0.0065  0.0017  0.0073  0.0015 </r>
       </set>
      </set>
      <set comment="kpoint 24">
       <set comment="band 1">
        <r>  0.0000  0.0289  0.0000  0.0289  0.0031  0.0004  0.0000  0.0004  0.0031 </r>
        <r>  0.0000  0.0289  0.0000  0.0289  0.0031  0.0004  0.0000  0.0004  0.0031 </r>
       </set>
       <set comment="band 2">
        <r>  0.0455  0.0198  0.0037  0.0198  0.0023  0.0001  0.0022  0.0001  0.0023 </r>
        <r>  0.0462  0.0195  0.0037  0.0195  0.0023  0.0001  0.0022  0.0001  0.0023 </r>
       </set>
       <set comment="band 3">
        <r>  0.0462  0.0195  0.0037  0.0195  0.0023  0.0001  0.0022  0.0001  0.0023 </r>
        <r>  0.0455  0.0198  0.0037  0.0198  0.0023  0.0001  0.0022  0.0001  0.0023 </r>
       </set>
       <set comment="band 4">
        <r>  0.0000  0.0262  0.0000  0.0262  0.0033  0.0061  0.0000  0.0061  0.0033 </r>
        <r>  0.0000  0.0262  0.0000  0.0262  0.0033  0.0061  0.0000  0.0061  0.0033 </r>
       </set>
       <set comment="band 5">
        <r>  0.0610  0.0041  0.0331  0.0041  0.0006  0.0062  0.0004  0.0062  0.0006 </r>
        <r>  0.0609  0.0041  0.0331  0.0041  0.0006  0.0062  0.0004  0.0062  0.0006 </r>
       </set>
       <set comment="band 6">
        <r>  0.0609  0.0041  0.0331  0.0041  0.0006  0.0062  0.0004  0.0062  0.0006 </r>
        <r>  0.0610  0.0041  0.0331  0.0041  0.0006  0.0062  0.0004  0.0062  0.0006 </r>
       </set>
      </set>
      <set comment="kpoint 25">
       <set comment="band 1">
        <r>  0.0829  0.0000  0.0072  0.0000  0.0000  0.0000  0.0001  0.0000  0.0000 </r>
        <r>  0.0829  0.0000  0.0072  0.0000  0.0000  0.0000  0.0001  0.0000  0.0000 </r>
       </set>
       <set comment="band 2">
        <r>  0.0737  0.0000  0.0157  0.0000  0.0000  0.0000  0.0006  0.0000  0.0000 </r>
        <r>  0.0737  0.0000  0.0157  0.0000  0.0000  0.0000  0.0006  0.0000  0.0000 </r>
       </set>
       <set comment="band 3">
        <r>  0.0282  0.0000  0.0481  0.0000  0.0000  0.0000  0.0205  0.0000  0.0000 </r>
        <r>  0.0282  0.0000  0.0481  0.0000  0.0000  0.0000  0.0205  0.0000  0.0000 </r>
       </set>
       <set comment="band 4">
        <r>  0.0146  0.0000  0.0511  0.0000  0.0000  0.0000  0.0359  0.0000  0.0000 </r>
        <r>  0.0146  0.0000  0.0511  0.0000  0.0000  0.0000  0.0359  0.0000  0.0000 </r>
       </set>
       <set comment="band 5">
        <r>  0.0000  0.0004  0.0000  0.0014  0.0756  0.0038  0.0000  0.0118  0.0246 </r>
        <r>  0.0000  0.0005  0.0000  0.0015  0.0748  0.0039  0.0000  0.0120  0.0241 </r>
       </set>
       <set comment="band 6">
        <r>  0.0000  0.0017  0.0000  0.0006  0.0236  0.0123  0.0000  0.0041  0.0739 </r>
        <r>  0.0000  0.0013  0.0000  0.0004  0.0251  0.0117  0.0000  0.0037  0.0767 </r>
       </set>
      </set>
      <set comment="kpoint 26">
       <set comment="band 1">
        <r>  0.0809  0.0005  0.0072  0.0015  0.0000  0.0000  0.0001  0.0001  0.0000 </r>
        <r>  0.0809  0.0005  0.0072  0.0015  0.0000  0.0000  0.0001  0.0001  0.0000 </r>
       </set>
       <set comment="band 2">
        <r>  0.0716  0.0005  0.0157  0.0014  0.0000  0.0000  0.0005  0.0001  0.0000 </r>
        <r>  0.0716  0.0005  0.0157  0.0014  0.0000  0.0000  0.0005  0.0001  0.0000 </r>
       </set>
       <set comment="band 3">
        <r>  0.0250  0.0007  0.0465  0.0022  0.0000  0.0003  0.0204  0.0008  0.0000 </r>
        <r>  0.0250  0.0007  0.0465  0.0022  0.0000  0.0003  0.0204  0.0008  0.0000 </r>
       </set>
       <set comment="band 4">
        <r>  0.0102  0.0014  0.0473  0.0041  0.0002  0.0004  0.0357  0.0012  0.0001 </r>
        <r>  0.0102  0.0014  0.0473  0.0041  0.0002  0.0004  0.0357  0.0012  0.0001 </r>
       </set>
       <set comment="band 5">
        <r>  0.0138  0.0108  0.0040  0.0323  0.0281  0.0020  0.0009  0.0061  0.0094 </r>
        <r>  0.0138  0.0108  0.0040  0.0323  0.0281  0.0020  0.0009  0.0061  0.0094 </r>
       </set>
       <set comment="band 6">
        <r>  0.0054  0.0067  0.0099  0.0200  0.0343  0.0038  0.0001  0.0114  0.0114 </r>
        <r>  0.0054  0.0067  0.0099  0.0200  0.0343  0.0038  0.0001  0.0114  0.0114 </r>
       </set>
      </set>
      <set comment="kpoint 27">
       <set comment="band 1">
        <r>  0.0748  0.0019  0.0071  0.0058  0.0001  0.0001  0.0000  0.0003  0.0000 </r>
        <r>  0.0748  0.0019  0.0071  0.0058  0.0001  0.0001  0.0000  0.0003  0.0000 </r>
       </set>
       <set comment="band 2">
        <r>  0.0655  0.0019  0.0154  0.0056  0.0001  0.0002  0.0003  0.0006  0.0000 </r>
        <r>  0.0655  0.0019  0.0154  0.0056  0.0001  0.0002  0.0003  0.0006  0.0000 </r>
       </set>
       <set comment="band 3">
        <r>  0.0070  0.0056  0.0328  0.0168  0.0005  0.0014  0.0194  0.0043  0.0002 </r>
        <r>  0.0070  0.0056  0.0328  0.0168  0.0005  0.0014  0.0194  0.0043  0.0002 </r>
       </set>
       <set comment="band 4">
        <r>  0.0315  0.0085  0.0205  0.0255  0.0138  0.0004  0.0033  0.0013  0.0046 </r>
        <r>  0.0315  0.0085  0.0205  0.0255  0.0138  0.0004  0.0033  0.0013  0.0046 </r>
       </set>
       <set comment="band 5">
        <r>  0.0144  0.0094  0.0009  0.0281  0.0145  0.0037  0.0042  0.0110  0.0048 </r>
        <r>  0.0144  0.0094  0.0009  0.0281  0.0145  0.0037  0.0042  0.0110  0.0048 </r>
       </set>
       <set comment="band 6">
        <r>  0.0150  0.0001  0.0471  0.0003  0.0078  0.0009  0.0278  0.0027  0.0026 </r>
        <r>  0.0150  0.0001  0.0471  0.0003  0.0078  0.0009  0.0278  0.0027  0.0026 </r>
       </set>
      </set>
      <set comment="kpoint 28">
       <set comment="band 1">
        <r>  0.0646  0.0042  0.0069  0.0126  0.0004  0.0002  0.0000  0.0006  0.0001 </r>
        <r>  0.0646  0.0042  0.0069  0.0126  0.0004  0.0002  0.0000  0.0006  0.0001 </r>
       </set>
       <set comment="band 2">
        <r>  0.0546  0.0042  0.0150  0.0125  0.0003  0.0004  0.0001  0.0013  0.0001 </r>
        <r>  0.0546  0.0042  0.0150  0.0125  0.0003  0.0004  0.0001  0.0013  0.0001 </r>
       </set>
       <set comment="band 3">
        <r>  0.0311  0.0107  0.0027  0.0321  0.0069  0.0012  0.0024  0.0036  0.0023 </r>
        <r>  0.0311  0.0107  0.0027  0.0321  0.0069  0.0012  0.0024  0.0036  0.0023 </r>
       </set>
       <set comment="band 4">
        <r>  0.0256  0.0097  0.0108  0.0291  0.0075  0.0021  0.0011  0.0062  0.0025 </r>
        <r>  0.0256  0.0097  0.0108  0.0291  0.0075  0.0021  0.0011  0.0062  0.0025 </r>
       </set>
       <set comment="band 5">
        <r>  0.0217  0.0013  0.0392  0.0039  0.0055  0.0020  0.0163  0.0061  0.0018 </r>
        <r>  0.0217  0.0013  0.0392  0.0039  0.0055  0.0020  0.0163  0.0061  0.0018 </r>
       </set>
       <set comment="band 6">
        <r>  0.0000  0.0772  0.0000  0.0257  0.0017  0.0081  0.0000  0.0027  0.0050 </r>
        <r>  0.0000  0.0772  0.0000  0.0257  0.0017  0.0081  0.0000  0.0027  0.0050 </r>
       </set>
      </set>
      <set comment="kpoint 29">
       <set comment="band 1">
        <r>  0.0475  0.0075  0.0071  0.0226  0.0011  0.0003  0.0001  0.0009  0.0004 </r>
        <r>  0.0475  0.0075  0.0071  0.0226  0.0011  0.0003  0.0001  0.0009  0.0004 </r>
       </set>
       <set comment="band 2">
        <r>  0.0254  0.0094  0.0159  0.0282  0.0006  0.0005  0.0000  0.0015  0.0002 </r>
        <r>  0.0254  0.0094  0.0159  0.0282  0.0006  0.0005  0.0000  0.0015  0.0002 </r>
       </set>
       <set comment="band 3">
        <r>  0.0672  0.0051  0.0022  0.0152  0.0044  0.0011  0.0007  0.0034  0.0015 </r>
        <r>  0.0672  0.0051  0.0022  0.0152  0.0044  0.0011  0.0007  0.0034  0.0015 </r>
       </set>
       <set comment="band 4">
        <r>  0.0461  0.0066  0.0109  0.0198  0.0041  0.0016  0.0002  0.0047  0.0014 </r>
        <r>  0.0461  0.0066  0.0109  0.0198  0.0041  0.0016  0.0002  0.0047  0.0014 </r>
       </set>
       <set comment="band 5">
        <r>  0.0030  0.0025  0.0254  0.0074  0.0133  0.0030  0.0194  0.0091  0.0044 </r>
        <r>  0.0030  0.0025  0.0254  0.0074  0.0133  0.0030  0.0194  0.0091  0.0044 </r>
       </set>
       <set comment="band 6">
        <r>  0.0000  0.0804  0.0000  0.0268  0.0002  0.0081  0.0000  0.0027  0.0006 </r>
        <r>  0.0000  0.0804  0.0000  0.0268  0.0002  0.0081  0.0000  0.0027  0.0006 </r>
       </set>
      </set>
      <set comment="kpoint 30">
       <set comment="band 1">
        <r>  0.0769  0.0000  0.0071  0.0058  0.0000  0.0000  0.0000  0.0003  0.0001 </r>
        <r>  0.0769  0.0000  0.0071  0.0058  0.0000  0.0000  0.0000  0.0003  0.0001 </r>
       </set>
       <set comment="band 2">
        <r>  0.0676  0.0000  0.0155  0.0056  0.0000  0.0000  0.0004  0.0006  0.0001 </r>
        <r>  0.0676  0.0000  0.0155  0.0056  0.0000  0.0000  0.0004  0.0006  0.0001 </r>
       </set>
       <set comment="band 3">
        <r>  0.0167  0.0000  0.0418  0.0106  0.0000  0.0000  0.0203  0.0035  0.0000 </r>
        <r>  0.0167  0.0000  0.0418  0.0106  0.0000  0.0000  0.0203  0.0035  0.0000 </r>
       </set>
       <set comment="band 4">
        <r>  0.0000  0.0168  0.0262  0.0184  0.0158  0.0017  0.0186  0.0001  0.0004 </r>
        <r>  0.0000  0.0168  0.0262  0.0184  0.0158  0.0017  0.0186  0.0001  0.0004 </r>
       </set>
       <set comment="band 5">
        <r>  0.0187  0.0261  0.0127  0.0153  0.0268  0.0000  0.0007  0.0069  0.0015 </r>
        <r>  0.0187  0.0261  0.0127  0.0153  0.0268  0.0000  0.0007  0.0069  0.0015 </r>
       </set>
       <set comment="band 6">
        <r>  0.0013  0.0203  0.0046  0.0072  0.0192  0.0000  0.0147  0.0140  0.0000 </r>
        <r>  0.0013  0.0203  0.0046  0.0072  0.0192  0.0000  0.0147  0.0140  0.0000 </r>
       </set>
      </set>
      <set comment="kpoint 31">
       <set comment="band 1">
        <r>  0.0688  0.0005  0.0070  0.0127  0.0000  0.0000  0.0000  0.0006  0.0003 </r>
        <r>  0.0688  0.0005  0.0070  0.0127  0.0000  0.0000  0.0000  0.0006  0.0003 </r>
       </set>
       <set comment="band 2">
        <r>  0.0592  0.0005  0.0152  0.0124  0.0000  0.0000  0.0002  0.0013  0.0003 </r>
        <r>  0.0592  0.0005  0.0152  0.0124  0.0000  0.0000  0.0002  0.0013  0.0003 </r>
       </set>
       <set comment="band 3">
        <r>  0.0126  0.0193  0.0027  0.0294  0.0106  0.0014  0.0059  0.0053  0.0006 </r>
        <r>  0.0126  0.0193  0.0027  0.0294  0.0106  0.0014  0.0059  0.0053  0.0006 </r>
       </set>
       <set comment="band 4">
        <r>  0.0130  0.0204  0.0212  0.0196  0.0125  0.0022  0.0038  0.0039  0.0006 </r>
        <r>  0.0130  0.0204  0.0212  0.0196  0.0125  0.0022  0.0038  0.0039  0.0006 </r>
       </set>
       <set comment="band 5">
        <r>  0.0091  0.0148  0.0214  0.0073  0.0132  0.0000  0.0112  0.0078  0.0007 </r>
        <r>  0.0091  0.0148  0.0214  0.0073  0.0132  0.0000  0.0112  0.0078  0.0007 </r>
       </set>
       <set comment="band 6">
        <r>  0.0394  0.0109  0.0133  0.0345  0.0058  0.0047  0.0085  0.0042  0.0008 </r>
        <r>  0.0394  0.0109  0.0133  0.0345  0.0058  0.0047  0.0085  0.0042  0.0008 </r>
       </set>
      </set>
      <set comment="kpoint 32">
       <set comment="band 1">
        <r>  0.0559  0.0019  0.0069  0.0220  0.0003  0.0001  0.0001  0.0010  0.0007 </r>
        <r>  0.0559  0.0019  0.0069  0.0220  0.0003  0.0001  0.0001  0.0010  0.0007 </r>
       </set>
       <set comment="band 2">
        <r>  0.0441  0.0021  0.0150  0.0226  0.0002  0.0002  0.0000  0.0022  0.0007 </r>
        <r>  0.0441  0.0021  0.0150  0.0226  0.0002  0.0002  0.0000  0.0022  0.0007 </r>
       </set>
       <set comment="band 3">
        <r>  0.0418  0.0175  0.0032  0.0189  0.0070  0.0012  0.0013  0.0029  0.0005 </r>
        <r>  0.0418  0.0175  0.0032  0.0189  0.0070  0.0012  0.0013  0.0029  0.0005 </r>
       </set>
       <set comment="band 4">
        <r>  0.0311  0.0183  0.0108  0.0166  0.0077  0.0024  0.0005  0.0048  0.0005 </r>
        <r>  0.0311  0.0183  0.0108  0.0166  0.0077  0.0024  0.0005  0.0048  0.0005 </r>
       </set>
       <set comment="band 5">
        <r>  0.0129  0.0222  0.0028  0.0278  0.0107  0.0028  0.0094  0.0048  0.0009 </r>
        <r>  0.0129  0.0222  0.0028  0.0278  0.0107  0.0028  0.0094  0.0048  0.0009 </r>
       </set>
       <set comment="band 6">
        <r>  0.0176  0.0218  0.0161  0.0215  0.0098  0.0064  0.0072  0.0055  0.0008 </r>
        <r>  0.0176  0.0218  0.0161  0.0215  0.0098  0.0064  0.0072  0.0055  0.0008 </r>
       </set>
      </set>
      <set comment="kpoint 33">
       <set comment="band 1">
        <r>  0.0075  0.0138  0.0065  0.0412  0.0003  0.0004  0.0002  0.0011  0.0005 </r>
        <r>  0.0075  0.0138  0.0065  0.0412  0.0003  0.0004  0.0002  0.0011  0.0005 </r>
       </set>
       <set comment="band 2">
        <r>  0.0442  0.0089  0.0123  0.0237  0.0022  0.0001  0.0005  0.0001  0.0010 </r>
        <r>  0.0442  0.0089  0.0123  0.0237  0.0022  0.0001  0.0005  0.0001  0.0010 </r>
       </set>
       <set comment="band 3">
        <r>  0.0507  0.0075  0.0015  0.0192  0.0024  0.0020  0.0002  0.0058  0.0010 </r>
        <r>  0.0507  0.0075  0.0015  0.0192  0.0024  0.0020  0.0002  0.0058  0.0010 </r>
       </set>
       <set comment="band 4">
        <r>  0.0760  0.0033  0.0160  0.0028  0.0045  0.0012  0.0001  0.0032  0.0015 </r>
        <r>  0.0760  0.0033  0.0160  0.0028  0.0045  0.0012  0.0001  0.0032  0.0015 </r>
       </set>
       <set comment="band 5">
        <r>  0.0236  0.0382  0.0000  0.0127  0.0090  0.0045  0.0066  0.0024  0.0030 </r>
        <r>  0.0236  0.0382  0.0000  0.0127  0.0090  0.0045  0.0066  0.0024  0.0030 </r>
       </set>
       <set comment="band 6">
        <r>  0.0185  0.0351  0.0081  0.0125  0.0088  0.0084  0.0052  0.0047  0.0029 </r>
        <r>  0.0185  0.0351  0.0081  0.0125  0.0088  0.0084  0.0052  0.0047  0.0029 </r>
       </set>
      </set>
      <set comment="kpoint 34">
       <set comment="band 1">
        <r>  0.0584  0.0000  0.0068  0.0220  0.0000  0.0000  0.0000  0.0010  0.0009 </r>
        <r>  0.0584  0.0000  0.0068  0.0220  0.0000  0.0000  0.0000  0.0010  0.0009 </r>
       </set>
       <set comment="band 2">
        <r>  0.0478  0.0000  0.0149  0.0219  0.0000  0.0000  0.0001  0.0023  0.0009 </r>
        <r>  0.0478  0.0000  0.0149  0.0219  0.0000  0.0000  0.0001  0.0023  0.0009 </r>
       </set>
       <set comment="band 3">
        <r>  0.0028  0.0447  0.0061  0.0030  0.0165  0.0014  0.0005  0.0018  0.0000 </r>
        <r>  0.0028  0.0447  0.0061  0.0030  0.0165  0.0014  0.0005  0.0018  0.0000 </r>
       </set>
       <set comment="band 4">
        <r>  0.0271  0.0277  0.0034  0.0160  0.0107  0.0000  0.0031  0.0063  0.0000 </r>
        <r>  0.0271  0.0277  0.0034  0.0160  0.0107  0.0000  0.0031  0.0063  0.0000 </r>
       </set>
       <set comment="band 5">
        <r>  0.0222  0.0171  0.0084  0.0309  0.0066  0.0073  0.0045  0.0002  0.0000 </r>
        <r>  0.0222  0.0171  0.0084  0.0309  0.0066  0.0073  0.0045  0.0002  0.0000 </r>
       </set>
       <set comment="band 6">
        <r>  0.0568  0.0013  0.0057  0.0380  0.0007  0.0049  0.0046  0.0078  0.0000 </r>
        <r>  0.0568  0.0013  0.0057  0.0380  0.0007  0.0049  0.0046  0.0078  0.0000 </r>
       </set>
      </set>
      <set comment="kpoint 35">
       <set comment="band 1">
        <r>  0.0410  0.0007  0.0072  0.0339  0.0001  0.0000  0.0003  0.0014  0.0022 </r>
        <r>  0.0410  0.0007  0.0072  0.0339  0.0001  0.0000  0.0003  0.0014  0.0022 </r>
       </set>
       <set comment="band 2">
        <r>  0.0196  0.0025  0.0161  0.0379  0.0002  0.0000  0.0000  0.0024  0.0022 </r>
        <r>  0.0196  0.0025  0.0161  0.0379  0.0002  0.0000  0.0000  0.0024  0.0022 </r>
       </set>
       <set comment="band 3">
        <r>  0.0506  0.0259  0.0027  0.0046  0.0063  0.0014  0.0009  0.0030  0.0001 </r>
        <r>  0.0506  0.0259  0.0027  0.0046  0.0063  0.0014  0.0009  0.0030  0.0001 </r>
       </set>
       <set comment="band 4">
        <r>  0.0216  0.0345  0.0109  0.0042  0.0080  0.0019  0.0001  0.0037  0.0000 </r>
        <r>  0.0216  0.0345  0.0109  0.0042  0.0080  0.0019  0.0001  0.0037  0.0000 </r>
       </set>
       <set comment="band 5">
        <r>  0.0651  0.0153  0.0000  0.0192  0.0031  0.0050  0.0036  0.0019  0.0007 </r>
        <r>  0.0651  0.0153  0.0000  0.0192  0.0031  0.0050  0.0036  0.0019  0.0007 </r>
       </set>
       <set comment="band 6">
        <r>  0.0449  0.0214  0.0079  0.0154  0.0048  0.0065  0.0024  0.0035  0.0007 </r>
        <r>  0.0449  0.0214  0.0079  0.0154  0.0048  0.0065  0.0024  0.0035  0.0007 </r>
       </set>
      </set>
      <set comment="kpoint 36">
       <set comment="band 1">
        <r>  0.0153  0.0237  0.0157  0.0237  0.0028  0.0001  0.0006  0.0001  0.0028 </r>
        <r>  0.0157  0.0230  0.0162  0.0230  0.0028  0.0001  0.0007  0.0001  0.0028 </r>
       </set>
       <set comment="band 2">
        <r>  0.0157  0.0230  0.0162  0.0230  0.0028  0.0001  0.0007  0.0001  0.0028 </r>
        <r>  0.0153  0.0237  0.0157  0.0237  0.0028  0.0001  0.0006  0.0001  0.0028 </r>
       </set>
       <set comment="band 3">
        <r>  0.0000  0.0281  0.0000  0.0281  0.0031  0.0016  0.0000  0.0016  0.0031 </r>
        <r>  0.0000  0.0281  0.0000  0.0281  0.0031  0.0016  0.0000  0.0016  0.0031 </r>
       </set>
       <set comment="band 4">
        <r>  0.0000  0.0270  0.0000  0.0270  0.0031  0.0036  0.0000  0.0036  0.0031 </r>
        <r>  0.0000  0.0270  0.0000  0.0270  0.0031  0.0036  0.0000  0.0036  0.0031 </r>
       </set>
       <set comment="band 5">
        <r>  0.1119  0.0020  0.0069  0.0020  0.0003  0.0046  0.0020  0.0046  0.0003 </r>
        <r>  0.1103  0.0020  0.0068  0.0020  0.0003  0.0047  0.0020  0.0047  0.0003 </r>
       </set>
       <set comment="band 6">
        <r>  0.1103  0.0020  0.0068  0.0020  0.0003  0.0047  0.0020  0.0047  0.0003 </r>
        <r>  0.1119  0.0020  0.0069  0.0020  0.0003  0.0046  0.0020  0.0046  0.0003 </r>
       </set>
      </set>
     </set>
    </set>
   </array>
  </projected>
 </calculation>
 <structure name="finalpos" >
  <crystal>
   <varray name="basis" >
    <v>       1.58515713      -2.74557209       0.00000000 </v>
    <v>       1.58515713       2.74557209       0.00000000 </v>
    <v>       0.00000000       0.00000000       5.15875934 </v>
   </varray>
   <i name="volume">     44.90352497 </i>
   <varray name="rec_basis" >
    <v>       0.31542614      -0.18211141       0.00000000 </v>
    <v>       0.31542614       0.18211141       0.00000000 </v>
    <v>       0.00000000       0.00000000       0.19384506 </v>
   </varray>
  </crystal>
  <varray name="positions" >
   <v>       0.33333300       0.66666700       0.25000000 </v>
   <v>       0.66666700       0.33333300       0.75000000 </v>
  </varray>
 </structure>
</modeling>
